 Entering Gaussian System, Link 0=g09
 Input=endo.gjf
 Output=endo.out
 Initial command:
 /share/sw/non-free/gaussian/g09/l1.exe "/scratch/users/ekwan16/hns/Gau-76939.inp" -scrdir="/scratch/users/ekwan16/hns/"
 Entering Link 1 = /share/sw/non-free/gaussian/g09/l1.exe PID=     76940.
  
 Copyright (c) 1988,1990,1992,1993,1995,1998,2003,2009,2013,
            Gaussian, Inc.  All Rights Reserved.
  
 This is part of the Gaussian(R) 09 program.  It is based on
 the Gaussian(R) 03 system (copyright 2003, Gaussian, Inc.),
 the Gaussian(R) 98 system (copyright 1998, Gaussian, Inc.),
 the Gaussian(R) 94 system (copyright 1995, Gaussian, Inc.),
 the Gaussian 92(TM) system (copyright 1992, Gaussian, Inc.),
 the Gaussian 90(TM) system (copyright 1990, Gaussian, Inc.),
 the Gaussian 88(TM) system (copyright 1988, Gaussian, Inc.),
 the Gaussian 86(TM) system (copyright 1986, Carnegie Mellon
 University), and the Gaussian 82(TM) system (copyright 1983,
 Carnegie Mellon University). Gaussian is a federally registered
 trademark of Gaussian, Inc.
  
 This software contains proprietary and confidential information,
 including trade secrets, belonging to Gaussian, Inc.
  
 This software is provided under written license and may be
 used, copied, transmitted, or stored only in accord with that
 written license.
  
 The following legend is applicable only to US Government
 contracts under FAR:
  
                    RESTRICTED RIGHTS LEGEND
  
 Use, reproduction and disclosure by the US Government is
 subject to restrictions as set forth in subparagraphs (a)
 and (c) of the Commercial Computer Software - Restricted
 Rights clause in FAR 52.227-19.
  
 Gaussian, Inc.
 340 Quinnipiac St., Bldg. 40, Wallingford CT 06492
  
  
 ---------------------------------------------------------------
 Warning -- This program may not be used in any manner that
 competes with the business of Gaussian, Inc. or will provide
 assistance to any competitor of Gaussian, Inc.  The licensee
 of this program is prohibited from giving any competitor of
 Gaussian, Inc. access to this program.  By using this program,
 the user acknowledges that Gaussian, Inc. is engaged in the
 business of creating and licensing software in the field of
 computational chemistry and represents and warrants to the
 licensee that it is not a competitor of Gaussian, Inc. and that
 it will not use this program in any manner prohibited above.
 ---------------------------------------------------------------
  

 Cite this work as:
 Gaussian 09, Revision D.01,
 M. J. Frisch, G. W. Trucks, H. B. Schlegel, G. E. Scuseria, 
 M. A. Robb, J. R. Cheeseman, G. Scalmani, V. Barone, B. Mennucci, 
 G. A. Petersson, H. Nakatsuji, M. Caricato, X. Li, H. P. Hratchian, 
 A. F. Izmaylov, J. Bloino, G. Zheng, J. L. Sonnenberg, M. Hada, 
 M. Ehara, K. Toyota, R. Fukuda, J. Hasegawa, M. Ishida, T. Nakajima, 
 Y. Honda, O. Kitao, H. Nakai, T. Vreven, J. A. Montgomery, Jr., 
 J. E. Peralta, F. Ogliaro, M. Bearpark, J. J. Heyd, E. Brothers, 
 K. N. Kudin, V. N. Staroverov, T. Keith, R. Kobayashi, J. Normand, 
 K. Raghavachari, A. Rendell, J. C. Burant, S. S. Iyengar, J. Tomasi, 
 M. Cossi, N. Rega, J. M. Millam, M. Klene, J. E. Knox, J. B. Cross, 
 V. Bakken, C. Adamo, J. Jaramillo, R. Gomperts, R. E. Stratmann, 
 O. Yazyev, A. J. Austin, R. Cammi, C. Pomelli, J. W. Ochterski, 
 R. L. Martin, K. Morokuma, V. G. Zakrzewski, G. A. Voth, 
 P. Salvador, J. J. Dannenberg, S. Dapprich, A. D. Daniels, 
 O. Farkas, J. B. Foresman, J. V. Ortiz, J. Cioslowski, 
 and D. J. Fox, Gaussian, Inc., Wallingford CT, 2013.
 
 ******************************************
 Gaussian 09:  ES64L-G09RevD.01 24-Apr-2013
                28-Jun-2016 
 ******************************************
 %mem=16GB
 %nprocshared=16
 Will use up to   16 processors via shared memory.
 -----------------------------------------------------------------
 #p b3lyp/6-31g* opt=(ts,calcfc,noeigentest) freq=noraman pop=none
 -----------------------------------------------------------------
 1/5=1,10=4,11=1,14=-1,18=20,26=3,38=1/1,3;
 2/9=110,12=2,17=6,18=5,40=1/2;
 3/5=1,6=6,7=1,11=2,16=1,25=1,30=1,71=2,74=-5,140=1/1,2,3;
 4//1;
 5/5=2,38=5/2;
 8/6=4,10=90,11=11/1;
 11/6=1,8=1,9=11,15=111,16=1/1,2,10;
 10/6=1,13=1/2;
 7/10=1,18=20,25=1/1,2,3,16;
 1/5=1,10=4,11=1,14=-1,18=20,26=3/3(2);
 2/9=110/2;
 99//99;
 2/9=110/2;
 3/5=1,6=6,7=1,11=2,16=1,25=1,30=1,71=1,74=-5/1,2,3;
 4/5=5,16=3,69=1/1;
 5/5=2,38=5/2;
 7//1,2,3,16;
 1/5=1,11=1,14=-1,18=20,26=3/3(-5);
 2/9=110/2;
 99/9=1/99;
 Leave Link    1 at Tue Jun 28 08:27:41 2016, MaxMem=  2147483648 cpu:         1.0
 (Enter /share/sw/non-free/gaussian/g09/l101.exe)
 -----
 title
 -----
 Symbolic Z-matrix:
 Charge =  0 Multiplicity = 1
 C                     1.73352  -0.64887  -0.12666 
 C                     1.6999   -0.11376   1.15809 
 C                     0.84813  -1.69905  -0.46099 
 C                    -0.06289  -2.23433   0.42825 
 C                    -1.29305  -0.34501   1.02792 
 C                    -0.37847   0.66129   1.32764 
 H                     1.46113  -0.73835   2.01157 
 H                     0.73977  -1.945    -1.51565 
 H                     0.13751  -2.26558   1.49318 
 H                    -0.82198  -2.92713   0.07762 
 C                     2.52213   0.05098  -1.21109 
 H                     2.31998   1.12856  -1.20669 
 H                     3.60057  -0.07891  -1.05706 
 H                     2.27497  -0.3367   -2.20366 
 H                     2.2862    0.77243   1.387 
 H                    -0.15127   1.04654   2.31299 
 H                    -1.86546  -0.93378   1.73163 
 C                    -0.30954   1.55905   0.14579 
 O                     0.2862    2.59108  -0.01705 
 O                    -1.08155   0.98693  -0.86125 
 C                    -1.80573  -0.09806  -0.33321 
 O                    -2.66782  -0.64244  -0.96737 
 
 Add virtual bond connecting atoms C5         and C4         Dist= 4.41D+00.
 Add virtual bond connecting atoms C6         and C2         Dist= 4.20D+00.
 NAtoms=     22 NQM=       22 NQMF=       0 NMMI=      0 NMMIF=      0
                NMic=       0 NMicF=      0.
                    Isotopes and Nuclear Properties:
 (Nuclear quadrupole moments (NQMom) in fm**2, nuclear magnetic moments (NMagM)
  in nuclear magnetons)

  Atom         1           2           3           4           5           6           7           8           9          10
 IAtWgt=          12          12          12          12          12          12           1           1           1           1
 AtmWgt=  12.0000000  12.0000000  12.0000000  12.0000000  12.0000000  12.0000000   1.0078250   1.0078250   1.0078250   1.0078250
 NucSpn=           0           0           0           0           0           0           1           1           1           1
 AtZEff=   0.0000000   0.0000000   0.0000000   0.0000000   0.0000000   0.0000000   0.0000000   0.0000000   0.0000000   0.0000000
 NQMom=    0.0000000   0.0000000   0.0000000   0.0000000   0.0000000   0.0000000   0.0000000   0.0000000   0.0000000   0.0000000
 NMagM=    0.0000000   0.0000000   0.0000000   0.0000000   0.0000000   0.0000000   2.7928460   2.7928460   2.7928460   2.7928460
 AtZNuc=   6.0000000   6.0000000   6.0000000   6.0000000   6.0000000   6.0000000   1.0000000   1.0000000   1.0000000   1.0000000

  Atom        11          12          13          14          15          16          17          18          19          20
 IAtWgt=          12           1           1           1           1           1           1          12          16          16
 AtmWgt=  12.0000000   1.0078250   1.0078250   1.0078250   1.0078250   1.0078250   1.0078250  12.0000000  15.9949146  15.9949146
 NucSpn=           0           1           1           1           1           1           1           0           0           0
 AtZEff=   0.0000000   0.0000000   0.0000000   0.0000000   0.0000000   0.0000000   0.0000000   0.0000000   0.0000000   0.0000000
 NQMom=    0.0000000   0.0000000   0.0000000   0.0000000   0.0000000   0.0000000   0.0000000   0.0000000   0.0000000   0.0000000
 NMagM=    0.0000000   2.7928460   2.7928460   2.7928460   2.7928460   2.7928460   2.7928460   0.0000000   0.0000000   0.0000000
 AtZNuc=   6.0000000   1.0000000   1.0000000   1.0000000   1.0000000   1.0000000   1.0000000   6.0000000   8.0000000   8.0000000

  Atom        21          22
 IAtWgt=          12          16
 AtmWgt=  12.0000000  15.9949146
 NucSpn=           0           0
 AtZEff=   0.0000000   0.0000000
 NQMom=    0.0000000   0.0000000
 NMagM=    0.0000000   0.0000000
 AtZNuc=   6.0000000   8.0000000
 Leave Link  101 at Tue Jun 28 08:27:41 2016, MaxMem=  2147483648 cpu:         7.4
 (Enter /share/sw/non-free/gaussian/g09/l103.exe)

 GradGradGradGradGradGradGradGradGradGradGradGradGradGradGradGradGradGrad
 Berny optimization.
 Initialization pass.
                           ----------------------------
                           !    Initial Parameters    !
                           ! (Angstroms and Degrees)  !
 --------------------------                            --------------------------
 ! Name  Definition              Value          Derivative Info.                !
 --------------------------------------------------------------------------------
 ! R1    R(1,2)                  1.3921         calculate D2E/DX2 analytically  !
 ! R2    R(1,3)                  1.4137         calculate D2E/DX2 analytically  !
 ! R3    R(1,11)                 1.5125         calculate D2E/DX2 analytically  !
 ! R4    R(2,6)                  2.2247         calculate D2E/DX2 analytically  !
 ! R5    R(2,7)                  1.0842         calculate D2E/DX2 analytically  !
 ! R6    R(2,15)                 1.087          calculate D2E/DX2 analytically  !
 ! R7    R(3,4)                  1.381          calculate D2E/DX2 analytically  !
 ! R8    R(3,8)                  1.0884         calculate D2E/DX2 analytically  !
 ! R9    R(4,5)                  2.3329         calculate D2E/DX2 analytically  !
 ! R10   R(4,9)                  1.0841         calculate D2E/DX2 analytically  !
 ! R11   R(4,10)                 1.0859         calculate D2E/DX2 analytically  !
 ! R12   R(5,6)                  1.3925         calculate D2E/DX2 analytically  !
 ! R13   R(5,17)                 1.0814         calculate D2E/DX2 analytically  !
 ! R14   R(5,21)                 1.4753         calculate D2E/DX2 analytically  !
 ! R15   R(6,16)                 1.0821         calculate D2E/DX2 analytically  !
 ! R16   R(6,18)                 1.4858         calculate D2E/DX2 analytically  !
 ! R17   R(11,12)                1.0964         calculate D2E/DX2 analytically  !
 ! R18   R(11,13)                1.0971         calculate D2E/DX2 analytically  !
 ! R19   R(11,14)                1.0939         calculate D2E/DX2 analytically  !
 ! R20   R(18,19)                1.2027         calculate D2E/DX2 analytically  !
 ! R21   R(18,20)                1.3919         calculate D2E/DX2 analytically  !
 ! R22   R(20,21)                1.4073         calculate D2E/DX2 analytically  !
 ! R23   R(21,22)                1.2007         calculate D2E/DX2 analytically  !
 ! A1    A(2,1,3)              119.2527         calculate D2E/DX2 analytically  !
 ! A2    A(2,1,11)             119.7623         calculate D2E/DX2 analytically  !
 ! A3    A(3,1,11)             120.0469         calculate D2E/DX2 analytically  !
 ! A4    A(1,2,6)              103.1094         calculate D2E/DX2 analytically  !
 ! A5    A(1,2,7)              120.6867         calculate D2E/DX2 analytically  !
 ! A6    A(1,2,15)             119.6504         calculate D2E/DX2 analytically  !
 ! A7    A(6,2,7)               86.271          calculate D2E/DX2 analytically  !
 ! A8    A(6,2,15)             101.7613         calculate D2E/DX2 analytically  !
 ! A9    A(7,2,15)             115.0035         calculate D2E/DX2 analytically  !
 ! A10   A(1,3,4)              123.2844         calculate D2E/DX2 analytically  !
 ! A11   A(1,3,8)              117.348          calculate D2E/DX2 analytically  !
 ! A12   A(4,3,8)              118.0791         calculate D2E/DX2 analytically  !
 ! A13   A(3,4,5)              101.5057         calculate D2E/DX2 analytically  !
 ! A14   A(3,4,9)              121.4501         calculate D2E/DX2 analytically  !
 ! A15   A(3,4,10)             120.0345         calculate D2E/DX2 analytically  !
 ! A16   A(5,4,9)               82.4329         calculate D2E/DX2 analytically  !
 ! A17   A(5,4,10)             103.3606         calculate D2E/DX2 analytically  !
 ! A18   A(9,4,10)             115.3428         calculate D2E/DX2 analytically  !
 ! A19   A(4,5,6)              107.1129         calculate D2E/DX2 analytically  !
 ! A20   A(4,5,17)              90.3128         calculate D2E/DX2 analytically  !
 ! A21   A(4,5,21)              94.6834         calculate D2E/DX2 analytically  !
 ! A22   A(6,5,17)             126.9444         calculate D2E/DX2 analytically  !
 ! A23   A(6,5,21)             107.8104         calculate D2E/DX2 analytically  !
 ! A24   A(17,5,21)            120.5011         calculate D2E/DX2 analytically  !
 ! A25   A(2,6,5)              110.2088         calculate D2E/DX2 analytically  !
 ! A26   A(2,6,16)              89.8441         calculate D2E/DX2 analytically  !
 ! A27   A(2,6,18)              96.1162         calculate D2E/DX2 analytically  !
 ! A28   A(5,6,16)             126.2417         calculate D2E/DX2 analytically  !
 ! A29   A(5,6,18)             107.2132         calculate D2E/DX2 analytically  !
 ! A30   A(16,6,18)            119.9645         calculate D2E/DX2 analytically  !
 ! A31   A(1,11,12)            110.8401         calculate D2E/DX2 analytically  !
 ! A32   A(1,11,13)            110.921          calculate D2E/DX2 analytically  !
 ! A33   A(1,11,14)            111.6401         calculate D2E/DX2 analytically  !
 ! A34   A(12,11,13)           107.28           calculate D2E/DX2 analytically  !
 ! A35   A(12,11,14)           108.0779         calculate D2E/DX2 analytically  !
 ! A36   A(13,11,14)           107.911          calculate D2E/DX2 analytically  !
 ! A37   A(6,18,19)            130.4792         calculate D2E/DX2 analytically  !
 ! A38   A(6,18,20)            107.5421         calculate D2E/DX2 analytically  !
 ! A39   A(19,18,20)           121.9697         calculate D2E/DX2 analytically  !
 ! A40   A(18,20,21)           109.3197         calculate D2E/DX2 analytically  !
 ! A41   A(5,21,20)            107.2421         calculate D2E/DX2 analytically  !
 ! A42   A(5,21,22)            131.3683         calculate D2E/DX2 analytically  !
 ! A43   A(20,21,22)           121.3888         calculate D2E/DX2 analytically  !
 ! D1    D(3,1,2,6)            -60.447          calculate D2E/DX2 analytically  !
 ! D2    D(3,1,2,7)             33.0244         calculate D2E/DX2 analytically  !
 ! D3    D(3,1,2,15)          -172.3718         calculate D2E/DX2 analytically  !
 ! D4    D(11,1,2,6)           108.4776         calculate D2E/DX2 analytically  !
 ! D5    D(11,1,2,7)          -158.051          calculate D2E/DX2 analytically  !
 ! D6    D(11,1,2,15)           -3.4471         calculate D2E/DX2 analytically  !
 ! D7    D(2,1,3,4)             -0.0411         calculate D2E/DX2 analytically  !
 ! D8    D(2,1,3,8)            166.724          calculate D2E/DX2 analytically  !
 ! D9    D(11,1,3,4)          -168.9336         calculate D2E/DX2 analytically  !
 ! D10   D(11,1,3,8)            -2.1686         calculate D2E/DX2 analytically  !
 ! D11   D(2,1,11,12)          -46.1014         calculate D2E/DX2 analytically  !
 ! D12   D(2,1,11,13)           72.9629         calculate D2E/DX2 analytically  !
 ! D13   D(2,1,11,14)         -166.6476         calculate D2E/DX2 analytically  !
 ! D14   D(3,1,11,12)          122.7344         calculate D2E/DX2 analytically  !
 ! D15   D(3,1,11,13)         -118.2013         calculate D2E/DX2 analytically  !
 ! D16   D(3,1,11,14)            2.1882         calculate D2E/DX2 analytically  !
 ! D17   D(1,2,6,5)             53.8691         calculate D2E/DX2 analytically  !
 ! D18   D(1,2,6,16)          -177.1564         calculate D2E/DX2 analytically  !
 ! D19   D(1,2,6,18)           -57.0218         calculate D2E/DX2 analytically  !
 ! D20   D(7,2,6,5)            -66.7903         calculate D2E/DX2 analytically  !
 ! D21   D(7,2,6,16)            62.1842         calculate D2E/DX2 analytically  !
 ! D22   D(7,2,6,18)          -177.6812         calculate D2E/DX2 analytically  !
 ! D23   D(15,2,6,5)           178.433          calculate D2E/DX2 analytically  !
 ! D24   D(15,2,6,16)          -52.5925         calculate D2E/DX2 analytically  !
 ! D25   D(15,2,6,18)           67.542          calculate D2E/DX2 analytically  !
 ! D26   D(1,3,4,5)             57.3771         calculate D2E/DX2 analytically  !
 ! D27   D(1,3,4,9)            -30.7299         calculate D2E/DX2 analytically  !
 ! D28   D(1,3,4,10)           170.3366         calculate D2E/DX2 analytically  !
 ! D29   D(8,3,4,5)           -109.2974         calculate D2E/DX2 analytically  !
 ! D30   D(8,3,4,9)            162.5957         calculate D2E/DX2 analytically  !
 ! D31   D(8,3,4,10)             3.6622         calculate D2E/DX2 analytically  !
 ! D32   D(3,4,5,6)            -47.4353         calculate D2E/DX2 analytically  !
 ! D33   D(3,4,5,17)          -176.5277         calculate D2E/DX2 analytically  !
 ! D34   D(3,4,5,21)            62.8278         calculate D2E/DX2 analytically  !
 ! D35   D(9,4,5,6)             73.2347         calculate D2E/DX2 analytically  !
 ! D36   D(9,4,5,17)           -55.8577         calculate D2E/DX2 analytically  !
 ! D37   D(9,4,5,21)          -176.5022         calculate D2E/DX2 analytically  !
 ! D38   D(10,4,5,6)          -172.4188         calculate D2E/DX2 analytically  !
 ! D39   D(10,4,5,17)           58.4888         calculate D2E/DX2 analytically  !
 ! D40   D(10,4,5,21)          -62.1557         calculate D2E/DX2 analytically  !
 ! D41   D(4,5,6,2)             -2.5224         calculate D2E/DX2 analytically  !
 ! D42   D(4,5,6,16)          -107.9622         calculate D2E/DX2 analytically  !
 ! D43   D(4,5,6,18)           100.9453         calculate D2E/DX2 analytically  !
 ! D44   D(17,5,6,2)           101.2868         calculate D2E/DX2 analytically  !
 ! D45   D(17,5,6,16)           -4.1531         calculate D2E/DX2 analytically  !
 ! D46   D(17,5,6,18)         -155.2455         calculate D2E/DX2 analytically  !
 ! D47   D(21,5,6,2)          -103.3962         calculate D2E/DX2 analytically  !
 ! D48   D(21,5,6,16)          151.164          calculate D2E/DX2 analytically  !
 ! D49   D(21,5,6,18)            0.0715         calculate D2E/DX2 analytically  !
 ! D50   D(4,5,21,20)         -104.1306         calculate D2E/DX2 analytically  !
 ! D51   D(4,5,21,22)           76.2092         calculate D2E/DX2 analytically  !
 ! D52   D(6,5,21,20)            5.5285         calculate D2E/DX2 analytically  !
 ! D53   D(6,5,21,22)         -174.1318         calculate D2E/DX2 analytically  !
 ! D54   D(17,5,21,20)         162.7385         calculate D2E/DX2 analytically  !
 ! D55   D(17,5,21,22)         -16.9217         calculate D2E/DX2 analytically  !
 ! D56   D(2,6,18,19)          -71.235          calculate D2E/DX2 analytically  !
 ! D57   D(2,6,18,20)          107.6663         calculate D2E/DX2 analytically  !
 ! D58   D(5,6,18,19)          175.38           calculate D2E/DX2 analytically  !
 ! D59   D(5,6,18,20)           -5.7187         calculate D2E/DX2 analytically  !
 ! D60   D(16,6,18,19)          22.1255         calculate D2E/DX2 analytically  !
 ! D61   D(16,6,18,20)        -158.9732         calculate D2E/DX2 analytically  !
 ! D62   D(6,18,20,21)           9.3237         calculate D2E/DX2 analytically  !
 ! D63   D(19,18,20,21)       -171.6614         calculate D2E/DX2 analytically  !
 ! D64   D(18,20,21,5)          -9.2717         calculate D2E/DX2 analytically  !
 ! D65   D(18,20,21,22)        170.4296         calculate D2E/DX2 analytically  !
 --------------------------------------------------------------------------------
 Trust Radius=3.00D-01 FncErr=1.00D-07 GrdErr=1.00D-06
 Number of steps in this run=    132 maximum allowed number of steps=    132.
 Search for a saddle point of order  1.
 GradGradGradGradGradGradGradGradGradGradGradGradGradGradGradGradGradGrad

 Leave Link  103 at Tue Jun 28 08:27:41 2016, MaxMem=  2147483648 cpu:         0.2
 (Enter /share/sw/non-free/gaussian/g09/l202.exe)
                          Input orientation:                          
 ---------------------------------------------------------------------
 Center     Atomic      Atomic             Coordinates (Angstroms)
 Number     Number       Type             X           Y           Z
 ---------------------------------------------------------------------
      1          6           0        1.733520   -0.648870   -0.126660
      2          6           0        1.699900   -0.113760    1.158090
      3          6           0        0.848130   -1.699050   -0.460990
      4          6           0       -0.062890   -2.234330    0.428250
      5          6           0       -1.293050   -0.345010    1.027920
      6          6           0       -0.378470    0.661290    1.327640
      7          1           0        1.461130   -0.738350    2.011570
      8          1           0        0.739770   -1.945000   -1.515650
      9          1           0        0.137510   -2.265580    1.493180
     10          1           0       -0.821980   -2.927130    0.077620
     11          6           0        2.522130    0.050980   -1.211090
     12          1           0        2.319980    1.128560   -1.206690
     13          1           0        3.600570   -0.078910   -1.057060
     14          1           0        2.274970   -0.336700   -2.203660
     15          1           0        2.286200    0.772430    1.387000
     16          1           0       -0.151270    1.046540    2.312990
     17          1           0       -1.865460   -0.933780    1.731630
     18          6           0       -0.309540    1.559050    0.145790
     19          8           0        0.286200    2.591080   -0.017050
     20          8           0       -1.081550    0.986930   -0.861250
     21          6           0       -1.805730   -0.098060   -0.333210
     22          8           0       -2.667820   -0.642440   -0.967370
 ---------------------------------------------------------------------
                    Distance matrix (angstroms):
                    1          2          3          4          5
     1  C    0.000000
     2  C    1.392141   0.000000
     3  C    1.413708   2.420760   0.000000
     4  C    2.459410   2.852527   1.381025   0.000000
     5  C    3.253538   3.004691   2.938525   2.332901   0.000000
     6  C    2.879585   2.224651   3.205456   3.048460   1.392454
     7  H    2.157367   1.084229   2.722548   2.658476   2.950897
     8  H    2.144011   3.379967   1.088366   2.122904   3.627957
     9  H    2.790140   2.680238   2.155161   1.084072   2.439582
    10  H    3.429691   3.929675   2.141856   1.085878   2.791473
    11  C    1.512509   2.513208   2.535258   3.820001   4.441348
    12  H    2.160939   2.742270   3.273803   4.433974   4.496540
    13  H    2.162493   2.919015   3.249012   4.502546   5.325924
    14  H    2.168997   3.417861   2.632255   3.999192   4.813932
    15  H    2.148654   1.086959   3.404604   3.934213   3.766781
    16  H    3.518343   2.471218   4.028899   3.784728   2.211669
    17  H    4.060428   3.703130   3.571665   2.576720   1.081439
    18  C    3.020469   2.803729   3.510498   3.811870   2.317518
    19  O    3.550215   3.270422   4.349490   4.858471   3.493797
    20  O    3.337676   3.609116   3.331420   3.616213   2.321155
    21  C    3.587805   3.809680   3.102011   2.860238   1.475297
    22  O    4.480918   4.886109   3.706042   3.356714   2.441237
                    6          7          8          9         10
     6  C    0.000000
     7  H    2.410577   0.000000
     8  H    4.015907   3.797057   0.000000
     9  H    2.976610   2.086415   3.085214   0.000000
    10  H    3.825704   3.707224   2.437653   1.833597   0.000000
    11  C    3.902705   3.483432   2.693232   4.285550   4.659719
    12  H    3.731327   3.818399   3.469768   4.855168   5.288666
    13  H    4.697600   3.798494   3.446269   4.824732   5.381339
    14  H    4.528444   4.311824   2.327408   4.685717   4.637420
    15  H    2.667647   1.831198   4.266292   3.722586   5.006196
    16  H    1.082105   2.424153   4.939813   3.424269   4.608339
    17  H    2.217791   3.344063   4.284229   2.417114   2.792498
    18  C    1.485764   3.448834   4.017437   4.079597   4.515867
    19  O    2.444190   4.071961   4.798703   5.088227   5.629180
    20  O    2.321982   4.206532   3.513070   4.196221   4.033450
    21  C    2.317780   4.071896   3.359899   3.436572   3.023273
    22  O    3.493981   5.092299   3.689030   4.069246   3.117521
                   11         12         13         14         15
    11  C    0.000000
    12  H    1.096386   0.000000
    13  H    1.097100   1.766432   0.000000
    14  H    1.093883   1.772840   1.771542   0.000000
    15  H    2.706700   2.618243   2.902719   3.758076   0.000000
    16  H    4.534021   4.301389   5.167222   5.310379   2.621804
    17  H    5.374039   5.514062   6.195569   5.743359   4.501800
    18  C    3.483354   2.988126   4.406668   3.974101   2.982824
    19  O    3.588485   2.773170   4.381269   4.160332   3.046120
    20  O    3.739639   3.421958   4.805893   3.849713   4.054920
    21  C    4.418513   4.391930   5.454577   4.495291   4.523358
    22  O    5.241737   5.298289   6.294309   5.104220   5.664559
                   16         17         18         19         20
    16  H    0.000000
    17  H    2.682926   0.000000
    18  C    2.232593   3.339158   0.000000
    19  O    2.829500   4.484658   1.202709   0.000000
    20  O    3.308289   3.320643   1.391923   2.270839   0.000000
    21  C    3.324112   2.228354   2.283427   3.421637   1.407290
    22  O    4.466144   2.830770   3.412795   4.481628   2.276480
                   21         22
    21  C    0.000000
    22  O    1.200711   0.000000
 Stoichiometry    C9H10O3
 Framework group  C1[X(C9H10O3)]
 Deg. of freedom    60
 Full point group                 C1      NOp   1
 Largest Abelian subgroup         C1      NOp   1
 Largest concise Abelian subgroup C1      NOp   1
                         Standard orientation:                         
 ---------------------------------------------------------------------
 Center     Atomic      Atomic             Coordinates (Angstroms)
 Number     Number       Type             X           Y           Z
 ---------------------------------------------------------------------
      1          6           0        1.733517   -0.648876   -0.126660
      2          6           0        1.699899   -0.113766    1.158090
      3          6           0        0.848124   -1.699054   -0.460990
      4          6           0       -0.062898   -2.234331    0.428250
      5          6           0       -1.293052   -0.345007    1.027920
      6          6           0       -0.378469    0.661290    1.327640
      7          1           0        1.461127   -0.738355    2.011570
      8          1           0        0.739763   -1.945003   -1.515650
      9          1           0        0.137502   -2.265581    1.493180
     10          1           0       -0.821990   -2.927128    0.077620
     11          6           0        2.522129    0.050971   -1.211090
     12          1           0        2.319983    1.128552   -1.206690
     13          1           0        3.600569   -0.078922   -1.057060
     14          1           0        2.274968   -0.336708   -2.203660
     15          1           0        2.286202    0.772422    1.387000
     16          1           0       -0.151267    1.046540    2.312990
     17          1           0       -1.865464   -0.933775    1.731630
     18          6           0       -0.309536    1.559050    0.145790
     19          8           0        0.286207    2.591078   -0.017050
     20          8           0       -1.081548    0.986932   -0.861250
     21          6           0       -1.805731   -0.098055   -0.333210
     22          8           0       -2.667823   -0.642433   -0.967370
 ---------------------------------------------------------------------
 Rotational constants (GHZ):      1.2206308      0.9823245      0.7491505
 Leave Link  202 at Tue Jun 28 08:27:42 2016, MaxMem=  2147483648 cpu:         0.2
 (Enter /share/sw/non-free/gaussian/g09/l301.exe)
 Standard basis: 6-31G(d) (6D, 7F)
 Ernie: Thresh=  0.10000D-02 Tol=  0.10000D-05 Strict=F.
 There are   200 symmetry adapted cartesian basis functions of A   symmetry.
 There are   200 symmetry adapted basis functions of A   symmetry.
   200 basis functions,   376 primitive gaussians,   200 cartesian basis functions
    44 alpha electrons       44 beta electrons
       nuclear repulsion energy       715.4424718354 Hartrees.
 IExCor=  402 DFT=T Ex+Corr=B3LYP ExCW=0 ScaHFX=  0.200000
 ScaDFX=  0.800000  0.720000  1.000000  0.810000 ScalE2=  1.000000  1.000000
 IRadAn=      0 IRanWt=     -1 IRanGd=            0 ICorTp=0 IEmpDi=  4
 NAtoms=   22 NActive=   22 NUniq=   22 SFac= 1.00D+00 NAtFMM=   60 NAOKFM=F Big=F
 Integral buffers will be    131072 words long.
 Raffenetti 2 integral format.
 Two-electron integral symmetry is turned on.
 Leave Link  301 at Tue Jun 28 08:27:42 2016, MaxMem=  2147483648 cpu:         0.6
 (Enter /share/sw/non-free/gaussian/g09/l302.exe)
 NPDir=0 NMtPBC=     1 NCelOv=     1 NCel=       1 NClECP=     1 NCelD=      1
         NCelK=      1 NCelE2=     1 NClLst=     1 CellRange=     0.0.
 One-electron integrals computed using PRISM.
 NBasis=   200 RedAO= T EigKep=  1.10D-03  NBF=   200
 NBsUse=   200 1.00D-06 EigRej= -1.00D+00 NBFU=   200
 Precomputing XC quadrature grid using
 IXCGrd= 4 IRadAn=           0 IRanWt=          -1 IRanGd=           0 AccXCQ= 0.00D+00.
 Generated NRdTot=       0 NPtTot=           0 NUsed=           0 NTot=          32
 NSgBfM=   199   199   199   199   199 MxSgAt=    22 MxSgA2=    22.
 Leave Link  302 at Tue Jun 28 08:27:42 2016, MaxMem=  2147483648 cpu:         4.3
 (Enter /share/sw/non-free/gaussian/g09/l303.exe)
 DipDrv:  MaxL=1.
 Leave Link  303 at Tue Jun 28 08:27:42 2016, MaxMem=  2147483648 cpu:         0.9
 (Enter /share/sw/non-free/gaussian/g09/l401.exe)
 ExpMin= 1.61D-01 ExpMax= 5.48D+03 ExpMxC= 8.25D+02 IAcc=1 IRadAn=         1 AccDes= 0.00D+00
 Harris functional with IExCor=  402 and IRadAn=       1 diagonalized for initial guess.
 HarFok:  IExCor=  402 AccDes= 0.00D+00 IRadAn=         1 IDoV= 1 UseB2=F ITyADJ=14
 ICtDFT=  3500011 ScaDFX=  1.000000  1.000000  1.000000  1.000000
 FoFCou: FMM=F IPFlag=           0 FMFlag=      100000 FMFlg1=           0
         NFxFlg=           0 DoJE=T BraDBF=F KetDBF=T FulRan=T
         wScrn=  0.000000 ICntrl=     500 IOpCl=  0 I1Cent=   200000004 NGrid=           0
         NMat0=    1 NMatS0=      1 NMatT0=    0 NMatD0=    1 NMtDS0=    0 NMtDT0=    0
 Petite list used in FoFCou.
 Harris En= -574.619483481725    
 JPrj=0 DoOrth=F DoCkMO=F.
 Leave Link  401 at Tue Jun 28 08:27:43 2016, MaxMem=  2147483648 cpu:         5.2
 (Enter /share/sw/non-free/gaussian/g09/l502.exe)
 Closed shell SCF:
 Using DIIS extrapolation, IDIIS=  1040.
 Integral symmetry usage will be decided dynamically.
 Keep R1 ints in memory in canonical form, NReq=206218512.
 IVT=      143262 IEndB=      143262 NGot=  2147483648 MDV=  1945325337
 LenX=  1945325337 LenY=  1945284896
 Requested convergence on RMS density matrix=1.00D-08 within 128 cycles.
 Requested convergence on MAX density matrix=1.00D-06.
 Requested convergence on             energy=1.00D-06.
 No special actions if energy rises.
 FoFCou: FMM=F IPFlag=           0 FMFlag=           0 FMFlg1=           0
         NFxFlg=           0 DoJE=F BraDBF=F KetDBF=F FulRan=T
         wScrn=  0.000000 ICntrl=     600 IOpCl=  0 I1Cent=           0 NGrid=           0
         NMat0=    1 NMatS0=  20100 NMatT0=    0 NMatD0=    1 NMtDS0=    0 NMtDT0=    0
 Symmetry not used in FoFCou.
 Integral accuracy reduced to 1.0D-05 until final iterations.

 Cycle   1  Pass 0  IDiag  1:
 E= -574.258619196689    
 DIIS: error= 2.46D-02 at cycle   1 NSaved=   1.
 NSaved= 1 IEnMin= 1 EnMin= -574.258619196689     IErMin= 1 ErrMin= 2.46D-02
 ErrMax= 2.46D-02  0.00D+00 EMaxC= 1.00D-01 BMatC= 3.57D-01 BMatP= 3.57D-01
 IDIUse=3 WtCom= 7.54D-01 WtEn= 2.46D-01
 Coeff-Com:  0.100D+01
 Coeff-En:   0.100D+01
 Coeff:      0.100D+01
 Gap=     0.158 Goal=   None    Shift=    0.000
 GapD=    0.158 DampG=1.000 DampE=0.500 DampFc=0.5000 IDamp=-1.
 Damping current iteration by 5.00D-01
 RMSDP=6.75D-03 MaxDP=1.77D-01              OVMax= 2.46D-01

 Cycle   2  Pass 0  IDiag  1:
 E= -574.335426523012     Delta-E=       -0.076807326323 Rises=F Damp=T
 DIIS: error= 1.31D-02 at cycle   2 NSaved=   2.
 NSaved= 2 IEnMin= 2 EnMin= -574.335426523012     IErMin= 2 ErrMin= 1.31D-02
 ErrMax= 1.31D-02  0.00D+00 EMaxC= 1.00D-01 BMatC= 7.04D-02 BMatP= 3.57D-01
 IDIUse=3 WtCom= 8.69D-01 WtEn= 1.31D-01
 Coeff-Com:  0.247D+00 0.753D+00
 Coeff-En:   0.367D+00 0.633D+00
 Coeff:      0.262D+00 0.738D+00
 Gap=     0.204 Goal=   None    Shift=    0.000
 RMSDP=2.25D-03 MaxDP=6.49D-02 DE=-7.68D-02 OVMax= 2.55D-01

 Cycle   3  Pass 0  IDiag  1:
 E= -574.519961853338     Delta-E=       -0.184535330326 Rises=F Damp=F
 DIIS: error= 1.42D-02 at cycle   3 NSaved=   3.
 NSaved= 3 IEnMin= 3 EnMin= -574.519961853338     IErMin= 2 ErrMin= 1.31D-02
 ErrMax= 1.42D-02  0.00D+00 EMaxC= 1.00D-01 BMatC= 6.36D-02 BMatP= 7.04D-02
 IDIUse=3 WtCom= 8.58D-01 WtEn= 1.42D-01
 Coeff-Com:  0.814D-01 0.477D+00 0.442D+00
 Coeff-En:   0.000D+00 0.000D+00 0.100D+01
 Coeff:      0.698D-01 0.409D+00 0.521D+00
 Gap=     0.186 Goal=   None    Shift=    0.000
 RMSDP=1.65D-03 MaxDP=4.33D-02 DE=-1.85D-01 OVMax= 8.26D-02

 Cycle   4  Pass 0  IDiag  1:
 E= -574.565537902631     Delta-E=       -0.045576049293 Rises=F Damp=F
 DIIS: error= 6.62D-03 at cycle   4 NSaved=   4.
 NSaved= 4 IEnMin= 4 EnMin= -574.565537902631     IErMin= 4 ErrMin= 6.62D-03
 ErrMax= 6.62D-03  0.00D+00 EMaxC= 1.00D-01 BMatC= 1.29D-02 BMatP= 6.36D-02
 IDIUse=3 WtCom= 9.34D-01 WtEn= 6.62D-02
 Coeff-Com:  0.207D-01 0.675D-01 0.312D+00 0.600D+00
 Coeff-En:   0.000D+00 0.000D+00 0.194D+00 0.806D+00
 Coeff:      0.193D-01 0.631D-01 0.304D+00 0.614D+00
 Gap=     0.181 Goal=   None    Shift=    0.000
 RMSDP=5.73D-04 MaxDP=1.68D-02 DE=-4.56D-02 OVMax= 3.17D-02

 Cycle   5  Pass 0  IDiag  1:
 E= -574.575449571838     Delta-E=       -0.009911669207 Rises=F Damp=F
 DIIS: error= 1.22D-03 at cycle   5 NSaved=   5.
 NSaved= 5 IEnMin= 5 EnMin= -574.575449571838     IErMin= 5 ErrMin= 1.22D-03
 ErrMax= 1.22D-03  0.00D+00 EMaxC= 1.00D-01 BMatC= 5.83D-04 BMatP= 1.29D-02
 IDIUse=3 WtCom= 9.88D-01 WtEn= 1.22D-02
 Coeff-Com:  0.639D-02 0.310D-02 0.137D+00 0.347D+00 0.506D+00
 Coeff-En:   0.000D+00 0.000D+00 0.000D+00 0.000D+00 0.100D+01
 Coeff:      0.631D-02 0.307D-02 0.136D+00 0.343D+00 0.512D+00
 Gap=     0.180 Goal=   None    Shift=    0.000
 RMSDP=1.13D-04 MaxDP=5.26D-03 DE=-9.91D-03 OVMax= 6.37D-03

 Cycle   6  Pass 0  IDiag  1:
 E= -574.575858253964     Delta-E=       -0.000408682126 Rises=F Damp=F
 DIIS: error= 3.11D-04 at cycle   6 NSaved=   6.
 NSaved= 6 IEnMin= 6 EnMin= -574.575858253964     IErMin= 6 ErrMin= 3.11D-04
 ErrMax= 3.11D-04  0.00D+00 EMaxC= 1.00D-01 BMatC= 5.49D-05 BMatP= 5.83D-04
 IDIUse=3 WtCom= 9.97D-01 WtEn= 3.11D-03
 Coeff-Com:  0.182D-02-0.410D-02 0.478D-01 0.133D+00 0.295D+00 0.526D+00
 Coeff-En:   0.000D+00 0.000D+00 0.000D+00 0.000D+00 0.353D-01 0.965D+00
 Coeff:      0.182D-02-0.409D-02 0.476D-01 0.133D+00 0.295D+00 0.527D+00
 Gap=     0.180 Goal=   None    Shift=    0.000
 RMSDP=4.24D-05 MaxDP=1.27D-03 DE=-4.09D-04 OVMax= 2.00D-03

 Cycle   7  Pass 0  IDiag  1:
 E= -574.575899919647     Delta-E=       -0.000041665683 Rises=F Damp=F
 DIIS: error= 9.12D-05 at cycle   7 NSaved=   7.
 NSaved= 7 IEnMin= 7 EnMin= -574.575899919647     IErMin= 7 ErrMin= 9.12D-05
 ErrMax= 9.12D-05  0.00D+00 EMaxC= 1.00D-01 BMatC= 3.66D-06 BMatP= 5.49D-05
 IDIUse=1 WtCom= 1.00D+00 WtEn= 0.00D+00
 Coeff-Com:  0.527D-03-0.255D-02 0.133D-01 0.387D-01 0.114D+00 0.281D+00
 Coeff-Com:  0.556D+00
 Coeff:      0.527D-03-0.255D-02 0.133D-01 0.387D-01 0.114D+00 0.281D+00
 Coeff:      0.556D+00
 Gap=     0.180 Goal=   None    Shift=    0.000
 RMSDP=1.43D-05 MaxDP=2.97D-04 DE=-4.17D-05 OVMax= 9.99D-04

 Cycle   8  Pass 0  IDiag  1:
 E= -574.575903337086     Delta-E=       -0.000003417440 Rises=F Damp=F
 DIIS: error= 3.60D-05 at cycle   8 NSaved=   8.
 NSaved= 8 IEnMin= 8 EnMin= -574.575903337086     IErMin= 8 ErrMin= 3.60D-05
 ErrMax= 3.60D-05  0.00D+00 EMaxC= 1.00D-01 BMatC= 5.10D-07 BMatP= 3.66D-06
 IDIUse=1 WtCom= 1.00D+00 WtEn= 0.00D+00
 Coeff-Com:  0.182D-03-0.116D-02 0.375D-02 0.109D-01 0.418D-01 0.116D+00
 Coeff-Com:  0.331D+00 0.497D+00
 Coeff:      0.182D-03-0.116D-02 0.375D-02 0.109D-01 0.418D-01 0.116D+00
 Coeff:      0.331D+00 0.497D+00
 Gap=     0.180 Goal=   None    Shift=    0.000
 RMSDP=4.71D-06 MaxDP=1.07D-04 DE=-3.42D-06 OVMax= 4.00D-04

 Initial convergence to 1.0D-05 achieved.  Increase integral accuracy.
 Cycle   9  Pass 1  IDiag  1:
 E= -574.575948728873     Delta-E=       -0.000045391786 Rises=F Damp=F
 DIIS: error= 2.08D-05 at cycle   1 NSaved=   1.
 NSaved= 1 IEnMin= 1 EnMin= -574.575948728873     IErMin= 1 ErrMin= 2.08D-05
 ErrMax= 2.08D-05  0.00D+00 EMaxC= 1.00D-01 BMatC= 1.68D-07 BMatP= 1.68D-07
 IDIUse=1 WtCom= 1.00D+00 WtEn= 0.00D+00
 Coeff-Com:  0.100D+01
 Coeff:      0.100D+01
 Gap=     0.180 Goal=   None    Shift=    0.000
 RMSDP=4.71D-06 MaxDP=1.07D-04 DE=-4.54D-05 OVMax= 2.94D-04

 Cycle  10  Pass 1  IDiag  1:
 E= -574.575948832040     Delta-E=       -0.000000103168 Rises=F Damp=F
 DIIS: error= 1.59D-05 at cycle   2 NSaved=   2.
 NSaved= 2 IEnMin= 2 EnMin= -574.575948832040     IErMin= 2 ErrMin= 1.59D-05
 ErrMax= 1.59D-05  0.00D+00 EMaxC= 1.00D-01 BMatC= 1.04D-07 BMatP= 1.68D-07
 IDIUse=1 WtCom= 1.00D+00 WtEn= 0.00D+00
 Coeff-Com:  0.414D+00 0.586D+00
 Coeff:      0.414D+00 0.586D+00
 Gap=     0.180 Goal=   None    Shift=    0.000
 RMSDP=3.00D-06 MaxDP=8.78D-05 DE=-1.03D-07 OVMax= 2.74D-04

 Cycle  11  Pass 1  IDiag  1:
 E= -574.575948879773     Delta-E=       -0.000000047733 Rises=F Damp=F
 DIIS: error= 1.20D-05 at cycle   3 NSaved=   3.
 NSaved= 3 IEnMin= 3 EnMin= -574.575948879773     IErMin= 3 ErrMin= 1.20D-05
 ErrMax= 1.20D-05  0.00D+00 EMaxC= 1.00D-01 BMatC= 6.16D-08 BMatP= 1.04D-07
 IDIUse=1 WtCom= 1.00D+00 WtEn= 0.00D+00
 Coeff-Com:  0.590D-02 0.433D+00 0.562D+00
 Coeff:      0.590D-02 0.433D+00 0.562D+00
 Gap=     0.180 Goal=   None    Shift=    0.000
 RMSDP=1.48D-06 MaxDP=3.47D-05 DE=-4.77D-08 OVMax= 1.25D-04

 Cycle  12  Pass 1  IDiag  1:
 E= -574.575948943544     Delta-E=       -0.000000063771 Rises=F Damp=F
 DIIS: error= 3.19D-06 at cycle   4 NSaved=   4.
 NSaved= 4 IEnMin= 4 EnMin= -574.575948943544     IErMin= 4 ErrMin= 3.19D-06
 ErrMax= 3.19D-06  0.00D+00 EMaxC= 1.00D-01 BMatC= 4.76D-09 BMatP= 6.16D-08
 IDIUse=1 WtCom= 1.00D+00 WtEn= 0.00D+00
 Coeff-Com: -0.178D-01 0.248D+00 0.359D+00 0.410D+00
 Coeff:     -0.178D-01 0.248D+00 0.359D+00 0.410D+00
 Gap=     0.180 Goal=   None    Shift=    0.000
 RMSDP=3.86D-07 MaxDP=1.45D-05 DE=-6.38D-08 OVMax= 1.63D-05

 Cycle  13  Pass 1  IDiag  1:
 E= -574.575948947622     Delta-E=       -0.000000004078 Rises=F Damp=F
 DIIS: error= 6.94D-07 at cycle   5 NSaved=   5.
 NSaved= 5 IEnMin= 5 EnMin= -574.575948947622     IErMin= 5 ErrMin= 6.94D-07
 ErrMax= 6.94D-07  0.00D+00 EMaxC= 1.00D-01 BMatC= 1.85D-10 BMatP= 4.76D-09
 IDIUse=1 WtCom= 1.00D+00 WtEn= 0.00D+00
 Coeff-Com: -0.106D-01 0.123D+00 0.183D+00 0.242D+00 0.462D+00
 Coeff:     -0.106D-01 0.123D+00 0.183D+00 0.242D+00 0.462D+00
 Gap=     0.180 Goal=   None    Shift=    0.000
 RMSDP=8.00D-08 MaxDP=1.63D-06 DE=-4.08D-09 OVMax= 3.33D-06

 Cycle  14  Pass 1  IDiag  1:
 E= -574.575948947762     Delta-E=       -0.000000000141 Rises=F Damp=F
 DIIS: error= 2.20D-07 at cycle   6 NSaved=   6.
 NSaved= 6 IEnMin= 6 EnMin= -574.575948947762     IErMin= 6 ErrMin= 2.20D-07
 ErrMax= 2.20D-07  0.00D+00 EMaxC= 1.00D-01 BMatC= 1.37D-11 BMatP= 1.85D-10
 IDIUse=1 WtCom= 1.00D+00 WtEn= 0.00D+00
 Coeff-Com: -0.364D-02 0.367D-01 0.565D-01 0.816D-01 0.240D+00 0.589D+00
 Coeff:     -0.364D-02 0.367D-01 0.565D-01 0.816D-01 0.240D+00 0.589D+00
 Gap=     0.180 Goal=   None    Shift=    0.000
 RMSDP=2.23D-08 MaxDP=7.24D-07 DE=-1.41D-10 OVMax= 1.38D-06

 Cycle  15  Pass 1  IDiag  1:
 E= -574.575948947765     Delta-E=       -0.000000000003 Rises=F Damp=F
 DIIS: error= 1.08D-07 at cycle   7 NSaved=   7.
 NSaved= 7 IEnMin= 7 EnMin= -574.575948947765     IErMin= 7 ErrMin= 1.08D-07
 ErrMax= 1.08D-07  0.00D+00 EMaxC= 1.00D-01 BMatC= 4.24D-12 BMatP= 1.37D-11
 IDIUse=1 WtCom= 1.00D+00 WtEn= 0.00D+00
 Coeff-Com: -0.588D-03 0.289D-02 0.565D-02 0.128D-01 0.806D-01 0.391D+00
 Coeff-Com:  0.508D+00
 Coeff:     -0.588D-03 0.289D-02 0.565D-02 0.128D-01 0.806D-01 0.391D+00
 Coeff:      0.508D+00
 Gap=     0.180 Goal=   None    Shift=    0.000
 RMSDP=1.04D-08 MaxDP=3.67D-07 DE=-2.73D-12 OVMax= 6.80D-07

 Cycle  16  Pass 1  IDiag  1:
 E= -574.575948947773     Delta-E=       -0.000000000008 Rises=F Damp=F
 DIIS: error= 1.77D-08 at cycle   8 NSaved=   8.
 NSaved= 8 IEnMin= 8 EnMin= -574.575948947773     IErMin= 8 ErrMin= 1.77D-08
 ErrMax= 1.77D-08  0.00D+00 EMaxC= 1.00D-01 BMatC= 2.13D-13 BMatP= 4.24D-12
 IDIUse=1 WtCom= 1.00D+00 WtEn= 0.00D+00
 Coeff-Com:  0.926D-04-0.236D-02-0.316D-02-0.224D-02 0.107D-01 0.117D+00
 Coeff-Com:  0.248D+00 0.632D+00
 Coeff:      0.926D-04-0.236D-02-0.316D-02-0.224D-02 0.107D-01 0.117D+00
 Coeff:      0.248D+00 0.632D+00
 Gap=     0.180 Goal=   None    Shift=    0.000
 RMSDP=3.27D-09 MaxDP=7.14D-08 DE=-7.73D-12 OVMax= 2.82D-07

 SCF Done:  E(RB3LYP) =  -574.575948948     A.U. after   16 cycles
            NFock= 16  Conv=0.33D-08     -V/T= 2.0092
 KE= 5.693386460727D+02 PE=-2.769966291495D+03 EE= 9.106092246394D+02
 Leave Link  502 at Tue Jun 28 08:27:54 2016, MaxMem=  2147483648 cpu:        88.3
 (Enter /share/sw/non-free/gaussian/g09/l801.exe)
 DoSCS=F DFT=T ScalE2(SS,OS)=  1.000000  1.000000
 Range of M.O.s used for correlation:     1   200
 NBasis=   200 NAE=    44 NBE=    44 NFC=     0 NFV=     0
 NROrb=    200 NOA=    44 NOB=    44 NVA=   156 NVB=   156
 Leave Link  801 at Tue Jun 28 08:27:54 2016, MaxMem=  2147483648 cpu:         0.5
 (Enter /share/sw/non-free/gaussian/g09/l1101.exe)
 Using compressed storage, NAtomX=    22.
 Will process     23 centers per pass.
 Leave Link 1101 at Tue Jun 28 08:27:55 2016, MaxMem=  2147483648 cpu:         3.1
 (Enter /share/sw/non-free/gaussian/g09/l1102.exe)
 Symmetrizing basis deriv contribution to polar:
 IMax=3 JMax=2 DiffMx= 0.00D+00
 Leave Link 1102 at Tue Jun 28 08:27:55 2016, MaxMem=  2147483648 cpu:         0.9
 (Enter /share/sw/non-free/gaussian/g09/l1110.exe)
 Forming Gx(P) for the SCF density, NAtomX=    22.
 Integral derivatives from FoFJK, PRISM(SPDF).
 Do as many integral derivatives as possible in FoFJK.
 G2DrvN: MDV=    2147483368.
 G2DrvN: will do    23 centers at a time, making    1 passes.
 Calling FoFCou, ICntrl=  3107 FMM=F I1Cent=   0 AccDes= 0.00D+00.
 FoFJK:  IHMeth= 1 ICntrl=    3107 DoSepK=F KAlg= 0 I1Cent=   0 FoldK=F
 IRaf=         0 NMat=   1 IRICut=       1 DoRegI=T DoRafI=F ISym2E= 0.
 FoFCou: FMM=F IPFlag=           0 FMFlag=      100000 FMFlg1=           0
         NFxFlg=           0 DoJE=F BraDBF=F KetDBF=F FulRan=T
         wScrn=  0.000000 ICntrl=    3107 IOpCl=  0 I1Cent=           0 NGrid=           0
         NMat0=    1 NMatS0=      1 NMatT0=    0 NMatD0=    1 NMtDS0=    0 NMtDT0=    0
 Symmetry not used in FoFCou.
 End of G2Drv F.D. properties file   721 does not exist.
 End of G2Drv F.D. properties file   722 does not exist.
 End of G2Drv F.D. properties file   788 does not exist.
 Leave Link 1110 at Tue Jun 28 08:28:11 2016, MaxMem=  2147483648 cpu:       252.1
 (Enter /share/sw/non-free/gaussian/g09/l1002.exe)
 Minotr:  Closed shell wavefunction.
          IDoAtm=1111111111111111111111
          Direct CPHF calculation.
          Differentiating once with respect to nuclear coordinates.
          Requested convergence is 1.0D-08 RMS, and 1.0D-07 maximum.
          Secondary convergence is 1.0D-12 RMS, and 1.0D-12 maximum.
          NewPWx=T KeepS1=F KeepF1=F KeepIn=T MapXYZ=F SortEE=F KeepMc=T.
          MDV=    2147483224 using IRadAn=       2.
 Generate precomputed XC quadrature information.
 Keep R1 ints in memory in canonical form, NReq=206082077.
 FoFCou: FMM=F IPFlag=           0 FMFlag=           0 FMFlg1=           0
         NFxFlg=           0 DoJE=F BraDBF=F KetDBF=F FulRan=T
         wScrn=  0.000000 ICntrl=     600 IOpCl=  0 I1Cent=           0 NGrid=           0
         NMat0=    1 NMatS0=  20100 NMatT0=    0 NMatD0=    1 NMtDS0=    0 NMtDT0=    0
 Symmetry not used in FoFCou.
          Solving linear equations simultaneously, MaxMat=       0.
          There are    69 degrees of freedom in the 1st order CPHF.  IDoFFX=6 NUNeed=     0.
     63 vectors produced by pass  0 Test12= 9.95D-15 1.45D-09 XBig12= 1.52D-01 1.21D-01.
 AX will form    63 AO Fock derivatives at one time.
     63 vectors produced by pass  1 Test12= 9.95D-15 1.45D-09 XBig12= 1.16D-02 2.62D-02.
     63 vectors produced by pass  2 Test12= 9.95D-15 1.45D-09 XBig12= 1.11D-04 2.78D-03.
     63 vectors produced by pass  3 Test12= 9.95D-15 1.45D-09 XBig12= 4.75D-07 1.14D-04.
     63 vectors produced by pass  4 Test12= 9.95D-15 1.45D-09 XBig12= 9.40D-10 4.61D-06.
     53 vectors produced by pass  5 Test12= 9.95D-15 1.45D-09 XBig12= 1.08D-12 9.19D-08.
      5 vectors produced by pass  6 Test12= 9.95D-15 1.45D-09 XBig12= 1.11D-15 3.16D-09.
 InvSVY:  IOpt=1 It=  1 EMax= 5.55D-16
 Solved reduced A of dimension   373 with    69 vectors.
 End of Minotr F.D. properties file   721 does not exist.
 End of Minotr F.D. properties file   722 does not exist.
 End of Minotr F.D. properties file   788 does not exist.
 Leave Link 1002 at Tue Jun 28 08:28:26 2016, MaxMem=  2147483648 cpu:       244.2
 (Enter /share/sw/non-free/gaussian/g09/l701.exe)
 Compute integral second derivatives.
 ... and contract with generalized density number  0.
 Leave Link  701 at Tue Jun 28 08:28:27 2016, MaxMem=  2147483648 cpu:         3.2
 (Enter /share/sw/non-free/gaussian/g09/l702.exe)
 L702 exits ... SP integral derivatives will be done elsewhere.
 Leave Link  702 at Tue Jun 28 08:28:27 2016, MaxMem=  2147483648 cpu:         0.4
 (Enter /share/sw/non-free/gaussian/g09/l703.exe)
 Compute integral second derivatives, UseDBF=F ICtDFT=           0.
 Integral derivatives from FoFJK, PRISM(SPDF).
 Calling FoFJK, ICntrl=    100147 FMM=F ISym2X=0 I1Cent= 0 IOpClX= 0 NMat=1 NMatS=1 NMatT=0.
 FoFJK:  IHMeth= 1 ICntrl=  100147 DoSepK=F KAlg= 0 I1Cent=   0 FoldK=F
 IRaf=         0 NMat=   1 IRICut=       1 DoRegI=T DoRafI=F ISym2E= 0.
 FoFCou: FMM=F IPFlag=           0 FMFlag=      100000 FMFlg1=         800
         NFxFlg=           0 DoJE=F BraDBF=F KetDBF=F FulRan=T
         wScrn=  0.000000 ICntrl=  100147 IOpCl=  0 I1Cent=           0 NGrid=           0
         NMat0=    1 NMatS0=      1 NMatT0=    0 NMatD0=    1 NMtDS0=    0 NMtDT0=    0
 Symmetry not used in FoFCou.
 Leave Link  703 at Tue Jun 28 08:28:43 2016, MaxMem=  2147483648 cpu:       261.7
 (Enter /share/sw/non-free/gaussian/g09/l716.exe)
 Dipole        = 1.05695591D+00-1.12682794D+00 1.34873499D+00
 Polarizability= 0.00000000D+00 0.00000000D+00 0.00000000D+00
                 0.00000000D+00 0.00000000D+00 0.00000000D+00
 ***** Axes restored to original set *****
 -------------------------------------------------------------------
 Center     Atomic                   Forces (Hartrees/Bohr)
 Number     Number              X              Y              Z
 -------------------------------------------------------------------
      1        6           0.000001141    0.000011001   -0.000013936
      2        6           0.000004449   -0.000001227   -0.000013480
      3        6          -0.000004619    0.000006976    0.000005326
      4        6          -0.000015773   -0.000016341   -0.000013749
      5        6           0.000005399    0.000002370   -0.000000629
      6        6          -0.000002628   -0.000019668    0.000000906
      7        1           0.000001075   -0.000010887   -0.000001541
      8        1           0.000000286    0.000002743   -0.000007321
      9        1           0.000000370   -0.000002018    0.000008385
     10        1           0.000001317   -0.000007408   -0.000005483
     11        6           0.000004251   -0.000001000    0.000006248
     12        1          -0.000004461    0.000005701    0.000002630
     13        1           0.000000097    0.000004085   -0.000002735
     14        1          -0.000005089    0.000003684   -0.000004809
     15        1           0.000003290    0.000009510    0.000006624
     16        1          -0.000002967    0.000006190    0.000012495
     17        1           0.000003487   -0.000013945    0.000006997
     18        6           0.000036281    0.000022734    0.000017196
     19        8          -0.000016068   -0.000011166    0.000001195
     20        8          -0.000009666   -0.000005041    0.000003067
     21        6           0.000003312    0.000027850   -0.000007422
     22        8          -0.000003488   -0.000014139    0.000000037
 -------------------------------------------------------------------
 Cartesian Forces:  Max     0.000036281 RMS     0.000010000
 FormGI is forming the generalized inverse of G from B-inverse, IUseBI=4.
 Leave Link  716 at Tue Jun 28 08:28:44 2016, MaxMem=  2147483648 cpu:         2.2
 (Enter /share/sw/non-free/gaussian/g09/l103.exe)

 GradGradGradGradGradGradGradGradGradGradGradGradGradGradGradGradGradGrad
 Berny optimization.
 Red2BG is reusing G-inverse.
 Internal  Forces:  Max     0.000016617 RMS     0.000005174
 Search for a saddle point.
 Step number   1 out of a maximum of  132
 All quantities printed in internal units (Hartrees-Bohrs-Radians)
 Swapping is turned off.
 Second derivative matrix not updated -- analytic derivatives used.
 ITU=  0
     Eigenvalues ---   -0.02387   0.00042   0.00220   0.00668   0.00980
     Eigenvalues ---    0.01349   0.01465   0.01617   0.01785   0.01813
     Eigenvalues ---    0.02117   0.02301   0.02645   0.03006   0.03671
     Eigenvalues ---    0.03891   0.04257   0.04493   0.04782   0.04979
     Eigenvalues ---    0.05207   0.05339   0.05549   0.05749   0.05907
     Eigenvalues ---    0.06021   0.06276   0.06633   0.12025   0.12511
     Eigenvalues ---    0.12863   0.13669   0.14499   0.15163   0.15207
     Eigenvalues ---    0.16884   0.19857   0.20402   0.24108   0.25853
     Eigenvalues ---    0.27855   0.29359   0.31419   0.33511   0.33854
     Eigenvalues ---    0.34063   0.34850   0.35642   0.35746   0.36244
     Eigenvalues ---    0.36489   0.36726   0.36970   0.37288   0.37516
     Eigenvalues ---    0.43650   0.45345   0.47940   0.90632   0.91937
 Eigenvectors required to have negative eigenvalues:
                          R4        R9        D2        D27       D5
   1                   -0.58666  -0.54662   0.19285  -0.19064   0.17155
                          D30       D48       D46       D60       D61
   1                   -0.15673  -0.15561   0.13804   0.13509   0.12132
 RFO step:  Lambda0=1.542780920D-10 Lambda=-3.81328627D-08.
 Linear search not attempted -- option 19 set.
 Iteration  1 RMS(Cart)=  0.00028212 RMS(Int)=  0.00000003
 Iteration  2 RMS(Cart)=  0.00000004 RMS(Int)=  0.00000001
 ITry= 1 IFail=0 DXMaxC= 1.21D-03 DCOld= 1.00D+10 DXMaxT= 3.00D-01 DXLimC= 3.00D+00 Rises=F
 Variable       Old X    -DE/DX   Delta X   Delta X   Delta X     New X
                                 (Linear)    (Quad)   (Total)
    R1        2.63076   0.00000   0.00000   0.00001   0.00001   2.63077
    R2        2.67152   0.00001   0.00000   0.00001   0.00001   2.67153
    R3        2.85823  -0.00001   0.00000  -0.00002  -0.00002   2.85821
    R4        4.20398   0.00000   0.00000  -0.00009  -0.00009   4.20389
    R5        2.04890   0.00000   0.00000   0.00002   0.00002   2.04891
    R6        2.05406   0.00001   0.00000   0.00003   0.00003   2.05409
    R7        2.60976   0.00001   0.00000   0.00003   0.00003   2.60979
    R8        2.05671   0.00000   0.00000   0.00001   0.00001   2.05673
    R9        4.40854   0.00000   0.00000  -0.00003  -0.00003   4.40851
   R10        2.04860   0.00001   0.00000   0.00003   0.00003   2.04863
   R11        2.05201   0.00000   0.00000   0.00001   0.00001   2.05202
   R12        2.63136   0.00000   0.00000   0.00001   0.00001   2.63136
   R13        2.04362   0.00001   0.00000   0.00002   0.00002   2.04364
   R14        2.78791   0.00001   0.00000   0.00005   0.00005   2.78795
   R15        2.04488   0.00001   0.00000   0.00004   0.00004   2.04492
   R16        2.80769   0.00001   0.00000   0.00000   0.00000   2.80769
   R17        2.07187   0.00000   0.00000   0.00001   0.00001   2.07188
   R18        2.07322   0.00000   0.00000   0.00000   0.00000   2.07322
   R19        2.06714   0.00000   0.00000   0.00001   0.00001   2.06715
   R20        2.27279  -0.00002   0.00000  -0.00003  -0.00003   2.27276
   R21        2.63035   0.00001   0.00000   0.00010   0.00010   2.63045
   R22        2.65939   0.00000   0.00000  -0.00009  -0.00009   2.65930
   R23        2.26902   0.00001   0.00000   0.00002   0.00002   2.26904
    A1        2.08135   0.00000   0.00000  -0.00003  -0.00003   2.08132
    A2        2.09025   0.00000   0.00000   0.00002   0.00002   2.09027
    A3        2.09521   0.00000   0.00000   0.00002   0.00002   2.09523
    A4        1.79960   0.00000   0.00000   0.00004   0.00004   1.79964
    A5        2.10638  -0.00001   0.00000  -0.00009  -0.00009   2.10629
    A6        2.08829   0.00001   0.00000   0.00008   0.00008   2.08837
    A7        1.50571   0.00000   0.00000   0.00004   0.00004   1.50575
    A8        1.77607   0.00000   0.00000  -0.00009  -0.00009   1.77598
    A9        2.00719   0.00000   0.00000   0.00001   0.00001   2.00720
   A10        2.15172   0.00001   0.00000   0.00010   0.00010   2.15182
   A11        2.04811  -0.00001   0.00000  -0.00004  -0.00004   2.04807
   A12        2.06087  -0.00001   0.00000  -0.00005  -0.00005   2.06082
   A13        1.77161  -0.00001   0.00000  -0.00013  -0.00013   1.77148
   A14        2.11970   0.00000   0.00000   0.00003   0.00003   2.11973
   A15        2.09500   0.00000   0.00000  -0.00002  -0.00002   2.09498
   A16        1.43873   0.00000   0.00000  -0.00002  -0.00002   1.43870
   A17        1.80398   0.00001   0.00000   0.00018   0.00018   1.80416
   A18        2.01311   0.00000   0.00000  -0.00001  -0.00001   2.01310
   A19        1.86947   0.00001   0.00000   0.00006   0.00006   1.86953
   A20        1.57626  -0.00001   0.00000  -0.00020  -0.00020   1.57605
   A21        1.65254   0.00000   0.00000   0.00006   0.00006   1.65260
   A22        2.21560   0.00000   0.00000   0.00000   0.00000   2.21559
   A23        1.88165   0.00000   0.00000   0.00000   0.00000   1.88164
   A24        2.10314   0.00000   0.00000   0.00006   0.00006   2.10320
   A25        1.92351   0.00000   0.00000   0.00001   0.00001   1.92351
   A26        1.56807   0.00001   0.00000   0.00025   0.00025   1.56832
   A27        1.67754  -0.00001   0.00000  -0.00018  -0.00018   1.67737
   A28        2.20333   0.00000   0.00000  -0.00001  -0.00001   2.20333
   A29        1.87122   0.00000   0.00000   0.00001   0.00001   1.87124
   A30        2.09378   0.00000   0.00000  -0.00007  -0.00007   2.09370
   A31        1.93452   0.00000   0.00000  -0.00002  -0.00002   1.93450
   A32        1.93594   0.00000   0.00000   0.00002   0.00002   1.93596
   A33        1.94849   0.00000   0.00000  -0.00001  -0.00001   1.94847
   A34        1.87239   0.00000   0.00000   0.00000   0.00000   1.87239
   A35        1.88632   0.00000   0.00000  -0.00001  -0.00001   1.88631
   A36        1.88340   0.00000   0.00000   0.00002   0.00002   1.88342
   A37        2.27729   0.00001   0.00000   0.00010   0.00010   2.27739
   A38        1.87696  -0.00001   0.00000  -0.00004  -0.00004   1.87693
   A39        2.12877  -0.00001   0.00000  -0.00006  -0.00006   2.12871
   A40        1.90799   0.00000   0.00000   0.00002   0.00002   1.90801
   A41        1.87173   0.00000   0.00000   0.00001   0.00001   1.87174
   A42        2.29281  -0.00001   0.00000  -0.00007  -0.00007   2.29274
   A43        2.11863   0.00001   0.00000   0.00006   0.00006   2.11869
    D1       -1.05500   0.00000   0.00000  -0.00002  -0.00002  -1.05502
    D2        0.57638   0.00000   0.00000   0.00003   0.00003   0.57641
    D3       -3.00846   0.00000   0.00000   0.00003   0.00003  -3.00843
    D4        1.89329   0.00000   0.00000   0.00006   0.00006   1.89335
    D5       -2.75851   0.00000   0.00000   0.00011   0.00011  -2.75840
    D6       -0.06016   0.00000   0.00000   0.00011   0.00011  -0.06006
    D7       -0.00072   0.00000   0.00000   0.00012   0.00012  -0.00060
    D8        2.90988   0.00000   0.00000   0.00015   0.00015   2.91003
    D9       -2.94845   0.00000   0.00000   0.00004   0.00004  -2.94841
   D10       -0.03785   0.00000   0.00000   0.00007   0.00007  -0.03778
   D11       -0.80462   0.00000   0.00000   0.00002   0.00002  -0.80460
   D12        1.27344   0.00000   0.00000   0.00003   0.00003   1.27347
   D13       -2.90855   0.00000   0.00000   0.00005   0.00005  -2.90850
   D14        2.14212   0.00000   0.00000   0.00010   0.00010   2.14222
   D15       -2.06300   0.00000   0.00000   0.00010   0.00010  -2.06290
   D16        0.03819   0.00000   0.00000   0.00013   0.00013   0.03832
   D17        0.94019   0.00000   0.00000  -0.00038  -0.00038   0.93981
   D18       -3.09196   0.00000   0.00000  -0.00027  -0.00027  -3.09223
   D19       -0.99522  -0.00001   0.00000  -0.00032  -0.00032  -0.99554
   D20       -1.16571   0.00000   0.00000  -0.00030  -0.00030  -1.16601
   D21        1.08532   0.00000   0.00000  -0.00018  -0.00018   1.08514
   D22       -3.10112   0.00000   0.00000  -0.00024  -0.00024  -3.10136
   D23        3.11424   0.00000   0.00000  -0.00031  -0.00031   3.11393
   D24       -0.91791   0.00000   0.00000  -0.00020  -0.00020  -0.91811
   D25        1.17883   0.00000   0.00000  -0.00025  -0.00025   1.17858
   D26        1.00142   0.00000   0.00000  -0.00004  -0.00004   1.00137
   D27       -0.53634   0.00000   0.00000   0.00006   0.00006  -0.53628
   D28        2.97293   0.00000   0.00000   0.00007   0.00007   2.97300
   D29       -1.90760   0.00000   0.00000  -0.00008  -0.00008  -1.90768
   D30        2.83783   0.00000   0.00000   0.00002   0.00002   2.83785
   D31        0.06392   0.00000   0.00000   0.00003   0.00003   0.06395
   D32       -0.82790   0.00000   0.00000  -0.00032  -0.00032  -0.82822
   D33       -3.08099   0.00000   0.00000  -0.00024  -0.00024  -3.08123
   D34        1.09655   0.00000   0.00000  -0.00029  -0.00029   1.09627
   D35        1.27819   0.00000   0.00000  -0.00029  -0.00029   1.27790
   D36       -0.97490   0.00000   0.00000  -0.00022  -0.00022  -0.97512
   D37       -3.08054   0.00000   0.00000  -0.00026  -0.00026  -3.08080
   D38       -3.00928   0.00000   0.00000  -0.00031  -0.00031  -3.00958
   D39        1.02082   0.00000   0.00000  -0.00024  -0.00024   1.02059
   D40       -1.08482   0.00000   0.00000  -0.00028  -0.00028  -1.08510
   D41       -0.04402   0.00001   0.00000   0.00043   0.00043  -0.04359
   D42       -1.88430   0.00000   0.00000   0.00009   0.00009  -1.88421
   D43        1.76183   0.00000   0.00000   0.00024   0.00024   1.76207
   D44        1.76779   0.00000   0.00000   0.00020   0.00020   1.76799
   D45       -0.07248   0.00000   0.00000  -0.00014  -0.00014  -0.07263
   D46       -2.70955   0.00000   0.00000   0.00001   0.00001  -2.70953
   D47       -1.80460   0.00001   0.00000   0.00034   0.00034  -1.80426
   D48        2.63831   0.00000   0.00000  -0.00001  -0.00001   2.63830
   D49        0.00125   0.00000   0.00000   0.00015   0.00015   0.00140
   D50       -1.81742  -0.00001   0.00000  -0.00024  -0.00024  -1.81766
   D51        1.33010  -0.00001   0.00000  -0.00038  -0.00038   1.32972
   D52        0.09649   0.00000   0.00000  -0.00015  -0.00015   0.09634
   D53       -3.03917   0.00000   0.00000  -0.00029  -0.00029  -3.03947
   D54        2.84032   0.00000   0.00000  -0.00004  -0.00004   2.84028
   D55       -0.29534   0.00000   0.00000  -0.00019  -0.00019  -0.29552
   D56       -1.24329   0.00000   0.00000  -0.00021  -0.00021  -1.24349
   D57        1.87913   0.00000   0.00000  -0.00014  -0.00014   1.87899
   D58        3.06096   0.00000   0.00000  -0.00015  -0.00015   3.06081
   D59       -0.09981   0.00000   0.00000  -0.00009  -0.00009  -0.09989
   D60        0.38616   0.00000   0.00000  -0.00003  -0.00003   0.38613
   D61       -2.77461   0.00000   0.00000   0.00004   0.00004  -2.77457
   D62        0.16273   0.00000   0.00000  -0.00001  -0.00001   0.16272
   D63       -2.99606   0.00000   0.00000   0.00005   0.00005  -2.99601
   D64       -0.16182   0.00000   0.00000   0.00010   0.00010  -0.16173
   D65        2.97456   0.00000   0.00000   0.00022   0.00022   2.97478
         Item               Value     Threshold  Converged?
 Maximum Force            0.000017     0.000450     YES
 RMS     Force            0.000005     0.000300     YES
 Maximum Displacement     0.001206     0.001800     YES
 RMS     Displacement     0.000282     0.001200     YES
 Predicted change in Energy=-1.898929D-08
 Optimization completed.
    -- Stationary point found.
                           ----------------------------
                           !   Optimized Parameters   !
                           ! (Angstroms and Degrees)  !
 --------------------------                            --------------------------
 ! Name  Definition              Value          Derivative Info.                !
 --------------------------------------------------------------------------------
 ! R1    R(1,2)                  1.3921         -DE/DX =    0.0                 !
 ! R2    R(1,3)                  1.4137         -DE/DX =    0.0                 !
 ! R3    R(1,11)                 1.5125         -DE/DX =    0.0                 !
 ! R4    R(2,6)                  2.2247         -DE/DX =    0.0                 !
 ! R5    R(2,7)                  1.0842         -DE/DX =    0.0                 !
 ! R6    R(2,15)                 1.087          -DE/DX =    0.0                 !
 ! R7    R(3,4)                  1.381          -DE/DX =    0.0                 !
 ! R8    R(3,8)                  1.0884         -DE/DX =    0.0                 !
 ! R9    R(4,5)                  2.3329         -DE/DX =    0.0                 !
 ! R10   R(4,9)                  1.0841         -DE/DX =    0.0                 !
 ! R11   R(4,10)                 1.0859         -DE/DX =    0.0                 !
 ! R12   R(5,6)                  1.3925         -DE/DX =    0.0                 !
 ! R13   R(5,17)                 1.0814         -DE/DX =    0.0                 !
 ! R14   R(5,21)                 1.4753         -DE/DX =    0.0                 !
 ! R15   R(6,16)                 1.0821         -DE/DX =    0.0                 !
 ! R16   R(6,18)                 1.4858         -DE/DX =    0.0                 !
 ! R17   R(11,12)                1.0964         -DE/DX =    0.0                 !
 ! R18   R(11,13)                1.0971         -DE/DX =    0.0                 !
 ! R19   R(11,14)                1.0939         -DE/DX =    0.0                 !
 ! R20   R(18,19)                1.2027         -DE/DX =    0.0                 !
 ! R21   R(18,20)                1.3919         -DE/DX =    0.0                 !
 ! R22   R(20,21)                1.4073         -DE/DX =    0.0                 !
 ! R23   R(21,22)                1.2007         -DE/DX =    0.0                 !
 ! A1    A(2,1,3)              119.2527         -DE/DX =    0.0                 !
 ! A2    A(2,1,11)             119.7623         -DE/DX =    0.0                 !
 ! A3    A(3,1,11)             120.0469         -DE/DX =    0.0                 !
 ! A4    A(1,2,6)              103.1094         -DE/DX =    0.0                 !
 ! A5    A(1,2,7)              120.6867         -DE/DX =    0.0                 !
 ! A6    A(1,2,15)             119.6504         -DE/DX =    0.0                 !
 ! A7    A(6,2,7)               86.271          -DE/DX =    0.0                 !
 ! A8    A(6,2,15)             101.7613         -DE/DX =    0.0                 !
 ! A9    A(7,2,15)             115.0035         -DE/DX =    0.0                 !
 ! A10   A(1,3,4)              123.2844         -DE/DX =    0.0                 !
 ! A11   A(1,3,8)              117.348          -DE/DX =    0.0                 !
 ! A12   A(4,3,8)              118.0791         -DE/DX =    0.0                 !
 ! A13   A(3,4,5)              101.5057         -DE/DX =    0.0                 !
 ! A14   A(3,4,9)              121.4501         -DE/DX =    0.0                 !
 ! A15   A(3,4,10)             120.0345         -DE/DX =    0.0                 !
 ! A16   A(5,4,9)               82.4329         -DE/DX =    0.0                 !
 ! A17   A(5,4,10)             103.3606         -DE/DX =    0.0                 !
 ! A18   A(9,4,10)             115.3428         -DE/DX =    0.0                 !
 ! A19   A(4,5,6)              107.1129         -DE/DX =    0.0                 !
 ! A20   A(4,5,17)              90.3128         -DE/DX =    0.0                 !
 ! A21   A(4,5,21)              94.6834         -DE/DX =    0.0                 !
 ! A22   A(6,5,17)             126.9444         -DE/DX =    0.0                 !
 ! A23   A(6,5,21)             107.8104         -DE/DX =    0.0                 !
 ! A24   A(17,5,21)            120.5011         -DE/DX =    0.0                 !
 ! A25   A(2,6,5)              110.2088         -DE/DX =    0.0                 !
 ! A26   A(2,6,16)              89.8441         -DE/DX =    0.0                 !
 ! A27   A(2,6,18)              96.1162         -DE/DX =    0.0                 !
 ! A28   A(5,6,16)             126.2417         -DE/DX =    0.0                 !
 ! A29   A(5,6,18)             107.2132         -DE/DX =    0.0                 !
 ! A30   A(16,6,18)            119.9645         -DE/DX =    0.0                 !
 ! A31   A(1,11,12)            110.8401         -DE/DX =    0.0                 !
 ! A32   A(1,11,13)            110.921          -DE/DX =    0.0                 !
 ! A33   A(1,11,14)            111.6401         -DE/DX =    0.0                 !
 ! A34   A(12,11,13)           107.28           -DE/DX =    0.0                 !
 ! A35   A(12,11,14)           108.0779         -DE/DX =    0.0                 !
 ! A36   A(13,11,14)           107.911          -DE/DX =    0.0                 !
 ! A37   A(6,18,19)            130.4792         -DE/DX =    0.0                 !
 ! A38   A(6,18,20)            107.5421         -DE/DX =    0.0                 !
 ! A39   A(19,18,20)           121.9697         -DE/DX =    0.0                 !
 ! A40   A(18,20,21)           109.3197         -DE/DX =    0.0                 !
 ! A41   A(5,21,20)            107.2421         -DE/DX =    0.0                 !
 ! A42   A(5,21,22)            131.3683         -DE/DX =    0.0                 !
 ! A43   A(20,21,22)           121.3888         -DE/DX =    0.0                 !
 ! D1    D(3,1,2,6)            -60.447          -DE/DX =    0.0                 !
 ! D2    D(3,1,2,7)             33.0244         -DE/DX =    0.0                 !
 ! D3    D(3,1,2,15)          -172.3718         -DE/DX =    0.0                 !
 ! D4    D(11,1,2,6)           108.4776         -DE/DX =    0.0                 !
 ! D5    D(11,1,2,7)          -158.051          -DE/DX =    0.0                 !
 ! D6    D(11,1,2,15)           -3.4471         -DE/DX =    0.0                 !
 ! D7    D(2,1,3,4)             -0.0411         -DE/DX =    0.0                 !
 ! D8    D(2,1,3,8)            166.724          -DE/DX =    0.0                 !
 ! D9    D(11,1,3,4)          -168.9336         -DE/DX =    0.0                 !
 ! D10   D(11,1,3,8)            -2.1686         -DE/DX =    0.0                 !
 ! D11   D(2,1,11,12)          -46.1014         -DE/DX =    0.0                 !
 ! D12   D(2,1,11,13)           72.9629         -DE/DX =    0.0                 !
 ! D13   D(2,1,11,14)         -166.6476         -DE/DX =    0.0                 !
 ! D14   D(3,1,11,12)          122.7344         -DE/DX =    0.0                 !
 ! D15   D(3,1,11,13)         -118.2013         -DE/DX =    0.0                 !
 ! D16   D(3,1,11,14)            2.1882         -DE/DX =    0.0                 !
 ! D17   D(1,2,6,5)             53.8691         -DE/DX =    0.0                 !
 ! D18   D(1,2,6,16)          -177.1564         -DE/DX =    0.0                 !
 ! D19   D(1,2,6,18)           -57.0218         -DE/DX =    0.0                 !
 ! D20   D(7,2,6,5)            -66.7903         -DE/DX =    0.0                 !
 ! D21   D(7,2,6,16)            62.1842         -DE/DX =    0.0                 !
 ! D22   D(7,2,6,18)          -177.6812         -DE/DX =    0.0                 !
 ! D23   D(15,2,6,5)           178.433          -DE/DX =    0.0                 !
 ! D24   D(15,2,6,16)          -52.5925         -DE/DX =    0.0                 !
 ! D25   D(15,2,6,18)           67.542          -DE/DX =    0.0                 !
 ! D26   D(1,3,4,5)             57.3771         -DE/DX =    0.0                 !
 ! D27   D(1,3,4,9)            -30.7299         -DE/DX =    0.0                 !
 ! D28   D(1,3,4,10)           170.3366         -DE/DX =    0.0                 !
 ! D29   D(8,3,4,5)           -109.2974         -DE/DX =    0.0                 !
 ! D30   D(8,3,4,9)            162.5957         -DE/DX =    0.0                 !
 ! D31   D(8,3,4,10)             3.6622         -DE/DX =    0.0                 !
 ! D32   D(3,4,5,6)            -47.4353         -DE/DX =    0.0                 !
 ! D33   D(3,4,5,17)          -176.5277         -DE/DX =    0.0                 !
 ! D34   D(3,4,5,21)            62.8278         -DE/DX =    0.0                 !
 ! D35   D(9,4,5,6)             73.2347         -DE/DX =    0.0                 !
 ! D36   D(9,4,5,17)           -55.8577         -DE/DX =    0.0                 !
 ! D37   D(9,4,5,21)          -176.5022         -DE/DX =    0.0                 !
 ! D38   D(10,4,5,6)          -172.4188         -DE/DX =    0.0                 !
 ! D39   D(10,4,5,17)           58.4888         -DE/DX =    0.0                 !
 ! D40   D(10,4,5,21)          -62.1557         -DE/DX =    0.0                 !
 ! D41   D(4,5,6,2)             -2.5224         -DE/DX =    0.0                 !
 ! D42   D(4,5,6,16)          -107.9622         -DE/DX =    0.0                 !
 ! D43   D(4,5,6,18)           100.9453         -DE/DX =    0.0                 !
 ! D44   D(17,5,6,2)           101.2868         -DE/DX =    0.0                 !
 ! D45   D(17,5,6,16)           -4.1531         -DE/DX =    0.0                 !
 ! D46   D(17,5,6,18)         -155.2455         -DE/DX =    0.0                 !
 ! D47   D(21,5,6,2)          -103.3962         -DE/DX =    0.0                 !
 ! D48   D(21,5,6,16)          151.164          -DE/DX =    0.0                 !
 ! D49   D(21,5,6,18)            0.0715         -DE/DX =    0.0                 !
 ! D50   D(4,5,21,20)         -104.1306         -DE/DX =    0.0                 !
 ! D51   D(4,5,21,22)           76.2092         -DE/DX =    0.0                 !
 ! D52   D(6,5,21,20)            5.5285         -DE/DX =    0.0                 !
 ! D53   D(6,5,21,22)         -174.1318         -DE/DX =    0.0                 !
 ! D54   D(17,5,21,20)         162.7385         -DE/DX =    0.0                 !
 ! D55   D(17,5,21,22)         -16.9217         -DE/DX =    0.0                 !
 ! D56   D(2,6,18,19)          -71.235          -DE/DX =    0.0                 !
 ! D57   D(2,6,18,20)          107.6663         -DE/DX =    0.0                 !
 ! D58   D(5,6,18,19)          175.38           -DE/DX =    0.0                 !
 ! D59   D(5,6,18,20)           -5.7187         -DE/DX =    0.0                 !
 ! D60   D(16,6,18,19)          22.1255         -DE/DX =    0.0                 !
 ! D61   D(16,6,18,20)        -158.9732         -DE/DX =    0.0                 !
 ! D62   D(6,18,20,21)           9.3237         -DE/DX =    0.0                 !
 ! D63   D(19,18,20,21)       -171.6614         -DE/DX =    0.0                 !
 ! D64   D(18,20,21,5)          -9.2717         -DE/DX =    0.0                 !
 ! D65   D(18,20,21,22)        170.4296         -DE/DX =    0.0                 !
 --------------------------------------------------------------------------------
 Lowest energy point so far.  Saving SCF results.
 GradGradGradGradGradGradGradGradGradGradGradGradGradGradGradGradGradGrad

 Largest change from initial coordinates is atom   14       0.000 Angstoms.
 Leave Link  103 at Tue Jun 28 08:28:44 2016, MaxMem=  2147483648 cpu:         2.1
 (Enter /share/sw/non-free/gaussian/g09/l202.exe)
                          Input orientation:                          
 ---------------------------------------------------------------------
 Center     Atomic      Atomic             Coordinates (Angstroms)
 Number     Number       Type             X           Y           Z
 ---------------------------------------------------------------------
      1          6           0        1.733520   -0.648870   -0.126660
      2          6           0        1.699900   -0.113760    1.158090
      3          6           0        0.848130   -1.699050   -0.460990
      4          6           0       -0.062890   -2.234330    0.428250
      5          6           0       -1.293050   -0.345010    1.027920
      6          6           0       -0.378470    0.661290    1.327640
      7          1           0        1.461130   -0.738350    2.011570
      8          1           0        0.739770   -1.945000   -1.515650
      9          1           0        0.137510   -2.265580    1.493180
     10          1           0       -0.821980   -2.927130    0.077620
     11          6           0        2.522130    0.050980   -1.211090
     12          1           0        2.319980    1.128560   -1.206690
     13          1           0        3.600570   -0.078910   -1.057060
     14          1           0        2.274970   -0.336700   -2.203660
     15          1           0        2.286200    0.772430    1.387000
     16          1           0       -0.151270    1.046540    2.312990
     17          1           0       -1.865460   -0.933780    1.731630
     18          6           0       -0.309540    1.559050    0.145790
     19          8           0        0.286200    2.591080   -0.017050
     20          8           0       -1.081550    0.986930   -0.861250
     21          6           0       -1.805730   -0.098060   -0.333210
     22          8           0       -2.667820   -0.642440   -0.967370
 ---------------------------------------------------------------------
                    Distance matrix (angstroms):
                    1          2          3          4          5
     1  C    0.000000
     2  C    1.392141   0.000000
     3  C    1.413708   2.420760   0.000000
     4  C    2.459410   2.852527   1.381025   0.000000
     5  C    3.253538   3.004691   2.938525   2.332901   0.000000
     6  C    2.879585   2.224651   3.205456   3.048460   1.392454
     7  H    2.157367   1.084229   2.722548   2.658476   2.950897
     8  H    2.144011   3.379967   1.088366   2.122904   3.627957
     9  H    2.790140   2.680238   2.155161   1.084072   2.439582
    10  H    3.429691   3.929675   2.141856   1.085878   2.791473
    11  C    1.512509   2.513208   2.535258   3.820001   4.441348
    12  H    2.160939   2.742270   3.273803   4.433974   4.496540
    13  H    2.162493   2.919015   3.249012   4.502546   5.325924
    14  H    2.168997   3.417861   2.632255   3.999192   4.813932
    15  H    2.148654   1.086959   3.404604   3.934213   3.766781
    16  H    3.518343   2.471218   4.028899   3.784728   2.211669
    17  H    4.060428   3.703130   3.571665   2.576720   1.081439
    18  C    3.020469   2.803729   3.510498   3.811870   2.317518
    19  O    3.550215   3.270422   4.349490   4.858471   3.493797
    20  O    3.337676   3.609116   3.331420   3.616213   2.321155
    21  C    3.587805   3.809680   3.102011   2.860238   1.475297
    22  O    4.480918   4.886109   3.706042   3.356714   2.441237
                    6          7          8          9         10
     6  C    0.000000
     7  H    2.410577   0.000000
     8  H    4.015907   3.797057   0.000000
     9  H    2.976610   2.086415   3.085214   0.000000
    10  H    3.825704   3.707224   2.437653   1.833597   0.000000
    11  C    3.902705   3.483432   2.693232   4.285550   4.659719
    12  H    3.731327   3.818399   3.469768   4.855168   5.288666
    13  H    4.697600   3.798494   3.446269   4.824732   5.381339
    14  H    4.528444   4.311824   2.327408   4.685717   4.637420
    15  H    2.667647   1.831198   4.266292   3.722586   5.006196
    16  H    1.082105   2.424153   4.939813   3.424269   4.608339
    17  H    2.217791   3.344063   4.284229   2.417114   2.792498
    18  C    1.485764   3.448834   4.017437   4.079597   4.515867
    19  O    2.444190   4.071961   4.798703   5.088227   5.629180
    20  O    2.321982   4.206532   3.513070   4.196221   4.033450
    21  C    2.317780   4.071896   3.359899   3.436572   3.023273
    22  O    3.493981   5.092299   3.689030   4.069246   3.117521
                   11         12         13         14         15
    11  C    0.000000
    12  H    1.096386   0.000000
    13  H    1.097100   1.766432   0.000000
    14  H    1.093883   1.772840   1.771542   0.000000
    15  H    2.706700   2.618243   2.902719   3.758076   0.000000
    16  H    4.534021   4.301389   5.167222   5.310379   2.621804
    17  H    5.374039   5.514062   6.195569   5.743359   4.501800
    18  C    3.483354   2.988126   4.406668   3.974101   2.982824
    19  O    3.588485   2.773170   4.381269   4.160332   3.046120
    20  O    3.739639   3.421958   4.805893   3.849713   4.054920
    21  C    4.418513   4.391930   5.454577   4.495291   4.523358
    22  O    5.241737   5.298289   6.294309   5.104220   5.664559
                   16         17         18         19         20
    16  H    0.000000
    17  H    2.682926   0.000000
    18  C    2.232593   3.339158   0.000000
    19  O    2.829500   4.484658   1.202709   0.000000
    20  O    3.308289   3.320643   1.391923   2.270839   0.000000
    21  C    3.324112   2.228354   2.283427   3.421637   1.407290
    22  O    4.466144   2.830770   3.412795   4.481628   2.276480
                   21         22
    21  C    0.000000
    22  O    1.200711   0.000000
 Stoichiometry    C9H10O3
 Framework group  C1[X(C9H10O3)]
 Deg. of freedom    60
 Full point group                 C1      NOp   1
 RotChk:  IX=0 Diff= 6.73D-16
 Largest Abelian subgroup         C1      NOp   1
 Largest concise Abelian subgroup C1      NOp   1
                         Standard orientation:                         
 ---------------------------------------------------------------------
 Center     Atomic      Atomic             Coordinates (Angstroms)
 Number     Number       Type             X           Y           Z
 ---------------------------------------------------------------------
      1          6           0        1.733517   -0.648876   -0.126660
      2          6           0        1.699899   -0.113766    1.158090
      3          6           0        0.848124   -1.699054   -0.460990
[...]
 00,0.00029785,-0.00016277,0.00012117,0.00010572,-0.00000562,0.00007877
 ,-0.00014632,0.00002138,0.00010618,0.05089231,-0.30340172,-0.00416025,
 -0.05372025,0.32933096,-0.00439700,0.02440680,0.00046573,0.00147743,0.
 00004787,0.00028046,0.00001558,0.00050808,-0.00257879,0.00098366,-0.00
 019690,0.00052154,0.00072108,0.00026729,0.00053204,-0.00053093,-0.0000
 9859,-0.00008696,-0.00018684,-0.00016921,0.00043469,0.00020149,0.00021
 593,0.00011333,-0.00006312,0.00001640,0.00006646,0.00017890,0.00003680
 ,-0.00012455,0.00001321,-0.00339278,-0.05045044,-0.00377873,0.00216700
 ,0.05109278,-0.01523165,-0.00025972,0.00111247,0.00164822,-0.00164286,
 -0.00139572,-0.00083067,-0.00030133,0.00180168,0.00043281,-0.00073734,
 -0.00011061,0.00025484,0.00058496,0.00019554,-0.00125558,-0.00008094,-
 0.00003952,0.00037642,-0.00009670,0.00016379,-0.00020805,0.00035943,0.
 00005778,-0.00011379,0.00000959,0.00002928,-0.00012579,-0.00001934,0.0
 0009647,-0.29858175,0.03363463,-0.04084766,-0.00576629,0.00111462,-0.0
 0141095,0.32552858,-0.01777922,0.00091286,-0.00051774,0.00084253,-0.00
 028792,-0.00143731,-0.00103722,-0.00148564,0.00153564,0.00063561,-0.00
 093090,-0.00002369,0.00014006,0.00049670,0.00006422,-0.00090901,0.0000
 7126,-0.00006870,0.00020879,-0.00015287,0.00001150,-0.00037846,0.00037
 378,0.00010812,-0.00010855,0.00004002,0.00005414,-0.00016293,0.0000299
 1,0.00006407,0.03216047,-0.04877349,0.00337821,0.03340210,-0.00294871,
 0.00590055,-0.03415980,0.05170723,0.02533834,-0.00317948,0.00197632,0.
 00100806,0.00107471,0.00031120,0.00021285,0.00043382,-0.00169093,-0.00
 036119,0.00052393,0.00029261,0.00067966,-0.00004596,0.00030799,-0.0001
 9322,0.00015770,0.00024173,-0.00108861,0.00031294,-0.00003613,0.000241
 73,0.00004098,0.00029683,0.00001923,-0.00003646,0.00007773,0.00014313,
 -0.00001873,-0.00009903,-0.03865283,0.00372744,-0.05466212,0.00114159,
 -0.00048665,-0.00029238,0.04145487,-0.00763630,0.05730061,0.00300302,0
 .00779323,0.01709273,-0.00081912,-0.00280580,0.00265033,0.00036450,0.0
 0095180,0.00121318,0.00005115,0.00016259,-0.00011973,-0.00001682,0.000
 06613,-0.00002127,-0.00003281,0.00003250,-0.00014154,-0.00001482,0.000
 22865,0.00108038,-0.00013042,-0.00053741,-0.00027516,0.00013369,-0.000
 01391,-0.00003719,-0.00001590,0.00004537,-0.00003282,-0.06456978,-0.02
 368617,-0.05882663,0.00104712,0.00220756,0.00695855,-0.00608053,-0.013
 03176,-0.02966632,0.06704541,0.00397847,0.00536937,0.01500894,-0.00228
 874,-0.00094993,0.00159789,0.00048424,0.00068315,0.00126256,0.00010927
 ,0.00019922,0.00012485,-0.00008720,-0.00031980,-0.00014320,0.00042920,
 0.00001391,0.00015714,-0.00016408,0.00034494,0.00064752,-0.00041883,-0
 .00000406,-0.00013067,0.00005417,-0.00003995,0.00005988,0.00004342,0.0
 0001755,-0.00003249,-0.02297860,-0.08574068,-0.08936567,-0.00907644,-0
 .00914881,-0.02961092,0.00116733,0.00128133,0.00535302,0.02858871,0.08
 835517,-0.00479619,-0.00936398,-0.02043886,0.00234457,0.00335894,-0.00
 293531,-0.00231887,-0.00217989,0.00082056,0.00063925,-0.00013669,0.000
 30643,0.00037643,0.00042044,0.00034691,-0.00080881,-0.00002824,0.00008
 672,0.00041727,-0.00060472,-0.00098488,0.00069535,0.00093114,0.0008397
 6,-0.00016922,-0.00006877,0.00019919,-0.00002435,0.00003040,-0.0000091
 0,-0.05549539,-0.08625818,-0.26774642,0.00053649,0.00008880,0.00142108
 ,-0.00129369,-0.00125336,-0.00324453,0.06003500,0.09482602,0.29142671,
 0.00464193,0.00274569,0.00066174,-0.12338678,-0.13948019,-0.03244215,0
 .00400586,-0.00337198,0.00286729,-0.00171149,0.00007122,-0.00055592,-0
 .00129421,0.00042039,-0.00017210,-0.00384739,-0.00400461,-0.00171870,-
 0.00112916,-0.00371630,-0.00117741,0.00035643,0.00041321,0.00013216,-0
 .00016285,0.00039081,0.00017422,0.00034025,-0.00030558,-0.00016638,-0.
 00202795,0.00201112,-0.00018022,0.00049792,0.00068410,-0.00040944,-0.0
 0038035,-0.00007007,0.00009731,-0.00016451,0.00015038,-0.00007632,0.12
 420302,-0.00751279,-0.00711215,-0.00032063,-0.13581246,-0.24247799,-0.
 04729920,-0.00097441,0.00260621,-0.00324203,0.00093931,0.00020108,0.00
 058923,0.00055276,-0.00080991,-0.00010243,0.00315807,0.00238450,0.0007
 9880,-0.00852181,-0.00986649,-0.00502079,-0.00048917,-0.00046560,-0.00
 015727,0.00025534,0.00013985,-0.00025379,-0.00021310,0.00019843,-0.000
 06101,0.00128718,-0.00027313,0.00153204,0.00010842,-0.00006837,-0.0004
 1288,0.00053775,0.00015511,-0.00041557,0.00010197,0.00005337,0.0001672
 8,0.14672803,0.25356697,-0.01838010,-0.02432818,-0.00244098,-0.0270974
 2,-0.04581114,-0.06928785,0.00159149,-0.00209052,-0.00507046,0.0008382
 5,0.00062641,-0.00096622,-0.00001172,0.00037391,0.00005960,-0.00093587
 ,0.00074172,-0.00022045,0.01380719,0.01836954,0.00729120,-0.00103998,-
 0.00116913,-0.00021377,-0.00001819,-0.00031874,0.00056646,-0.00012035,
 0.00005082,0.00037342,-0.00063496,-0.00057269,0.00154130,-0.00013751,0
 .00054327,-0.00044783,0.00021005,-0.00014812,-0.00021457,0.00001952,0.
 00027532,0.00025410,0.03161200,0.05417546,0.06866340,-0.00263057,-0.00
 382762,-0.00505675,-0.01045707,0.00896861,0.01061676,0.00408744,0.0043
 2516,-0.00102418,-0.00413584,0.00225082,0.00312198,-0.00286888,-0.0094
 6928,-0.02150479,-0.03488595,-0.03178990,-0.05419687,0.00095847,-0.000
 20231,0.00072251,0.00021900,-0.00022127,0.00002222,0.00047800,-0.00050
 542,-0.00005876,-0.00000984,0.00010209,0.00000872,0.00019345,-0.000362
 69,0.00023939,0.00001425,0.00001274,0.00010678,0.00011735,0.00011013,-
 0.00003853,0.00005129,-0.00008381,0.00004246,0.00008579,-0.00039124,0.
 00022925,0.05043563,0.00165449,0.00175308,0.00318813,0.00643138,-0.004
 47623,-0.00625449,-0.00223634,-0.00220415,0.00080417,0.00140488,-0.001
 41721,-0.00214390,-0.00003385,0.00330139,-0.01814059,-0.04243882,-0.08
 785846,-0.09947928,-0.00033082,-0.00020104,-0.00054951,-0.00012427,0.0
 0008301,-0.00001715,-0.00023343,0.00021210,0.00001710,0.00019102,-0.00
 024135,0.00002206,-0.00012820,0.00029591,-0.00007786,0.00006865,0.0000
 3249,-0.00012786,-0.00007317,-0.00003873,-0.00001834,-0.00003573,0.000
 04506,-0.00003992,-0.00031241,0.00050721,0.00006299,0.03207786,0.08307
 221,0.00003135,0.00041179,0.00063671,0.00105042,-0.00022788,-0.0011216
 5,-0.00021300,-0.00027244,-0.00001125,0.00015067,0.00040767,0.00015451
 ,0.00106418,0.00142864,0.00382043,-0.06225345,-0.09437592,-0.30700416,
 -0.00065489,-0.00003484,0.00072520,0.00001532,0.00004058,0.00004178,0.
 00003068,-0.00006832,0.00000207,-0.00005118,0.00009300,-0.00000130,0.0
 0015250,-0.00002834,0.00000230,-0.00004548,-0.00007139,0.00004218,-0.0
 0002130,-0.00003722,0.00001271,-0.00001952,0.00000270,0.00005321,0.000
 32795,0.00016242,-0.00006621,0.06641589,0.10218867,0.31704546,-0.00158
 232,-0.00247655,-0.00259002,-0.00252179,0.00088408,0.00208010,0.002562
 73,0.00287480,-0.00145901,-0.00669920,0.00282350,0.00596220,-0.1292076
 8,-0.11011269,0.10192175,0.00057619,-0.00453430,0.01384552,0.00021492,
 -0.00016075,-0.00006722,0.00027706,-0.00011878,0.00002004,-0.00034115,
 -0.00045468,0.00017528,0.00029960,0.00000343,0.00010528,0.00004922,-0.
 00010269,0.00002762,-0.00003628,0.00001875,0.00003398,0.00002621,0.000
 04663,0.00005482,0.00000480,-0.00001402,0.00005730,-0.00014435,0.00010
 108,-0.00004758,-0.00130383,0.00143703,-0.00029217,0.12889565,0.002132
 83,0.00289780,0.00309130,0.00342325,-0.00215344,-0.00256677,-0.0032668
 2,-0.00322940,0.00131743,0.00887623,-0.00302589,-0.00618401,-0.0991425
 9,-0.11964942,0.11134482,-0.01107935,-0.00835084,0.01453832,-0.0004863
 9,0.00027658,0.00007336,-0.00031227,0.00025351,-0.00011194,0.00023251,
 0.00065948,-0.00076392,-0.00024800,0.00006262,-0.00018723,-0.00005130,
 0.00016698,-0.00004621,0.00010073,-0.00001864,-0.00010251,-0.00002412,
 -0.00004309,-0.00008748,-0.00000217,0.00002985,-0.00006520,-0.00000178
 ,0.00004710,0.00003145,0.00268914,-0.00056104,-0.00047997,0.10346378,0
 .13557217,0.00045168,0.00061340,0.00036194,0.00007922,-0.00071694,-0.0
 0028421,-0.00077479,-0.00055849,0.00053695,0.00142171,-0.00046683,-0.0
 0169890,0.09936640,0.11517537,-0.18470170,-0.00639009,-0.00710676,0.01
 231485,-0.00001074,0.00003551,0.00003162,0.00001066,-0.00007538,0.0000
 6058,-0.00022798,0.00042671,0.00075175,0.00006904,-0.00027695,-0.00028
 039,-0.00000508,0.00000652,-0.00004116,-0.00003362,-0.00002385,-0.0000
 0269,-0.00000347,-0.00002065,0.00000125,-0.00000563,0.00002346,0.00000
 299,-0.00013687,0.00006989,-0.00002384,0.00109633,0.00042290,0.0002184
 0,-0.10787154,-0.12064473,0.18549167,-0.00072914,0.00305695,-0.0003431
 1,-0.00736711,0.00714899,-0.00222619,0.00087493,0.00051578,-0.00020310
 ,-0.00113040,-0.00042485,-0.00049968,-0.01087411,-0.01992307,0.0100298
 3,-0.05801974,0.00180874,-0.01131147,-0.00079316,-0.00073911,0.0004379
 0,0.00019092,-0.00043793,-0.00024971,-0.00009876,0.00025491,0.00005324
 ,0.00004911,-0.00031955,0.00015638,-0.00073245,0.00078278,0.00023637,-
 0.00242647,0.00009956,0.00181493,0.00013382,-0.00043158,0.00011961,0.0
 0026823,-0.00057432,-0.00024879,-0.00197410,0.00039363,-0.00096657,-0.
 00155724,0.00377306,-0.00562837,-0.00020870,-0.00647536,-0.00508547,0.
 43180286,0.00474913,0.00238923,0.00082821,0.01611207,-0.00970017,0.001
 22261,-0.00291839,-0.00156675,0.00067013,0.00048007,-0.00219958,-0.001
 01042,-0.01386133,-0.02428347,0.01656795,-0.02098088,-0.11604829,0.044
 11870,-0.00104819,-0.00075695,-0.00003924,0.00014276,-0.00020058,-0.00
 001690,-0.00021973,0.00039965,0.00016000,0.00003953,-0.00014648,-0.000
 03371,0.00047799,0.00129075,-0.00043017,-0.00199090,0.00008776,0.00177
 599,-0.00021315,-0.00063172,0.00038361,0.00014514,-0.00070683,0.000012
 00,-0.00369247,0.00152216,-0.00145423,0.00450636,0.01117275,-0.0139508
 6,-0.00352888,0.00040265,-0.00219838,0.35649172,0.85391710,-0.00075204
 ,-0.00221559,0.00278440,-0.00889852,0.00369046,0.00275338,-0.00062591,
 -0.00495634,-0.00013213,0.00682793,-0.00448055,-0.00676025,0.00972233,
 0.02430817,0.00222541,0.00279297,0.05114562,-0.17209099,0.00156582,-0.
 00087380,-0.00005307,-0.00028498,-0.00023298,-0.00056770,-0.00125651,0
 .00122075,-0.00037695,0.00031951,-0.00090341,-0.00008356,-0.00028456,-
 0.00080205,0.00016456,0.00145813,0.00077995,-0.00011332,-0.00014232,0.
 00050127,-0.00029418,0.00034746,-0.00037500,-0.00053165,0.00017836,-0.
 00036506,0.00019721,0.00063131,0.01573802,-0.01201354,-0.00369431,-0.0
 0151349,-0.00422719,-0.01205843,-0.15962172,0.44130644,-0.00076603,-0.
 00052417,0.00186598,-0.00103658,0.00025684,-0.00165444,-0.00063648,-0.
 00089705,0.00035000,0.00098162,-0.00037548,-0.00062169,0.00372699,0.00
 105283,0.00257786,0.00843886,-0.01875067,0.00604067,0.00016627,0.00078
 570,-0.00005230,-0.00016423,0.00018279,0.00004322,-0.00015152,0.000104
 76,-0.00000165,0.00013304,0.00001244,-0.00006031,-0.00009927,-0.000318
 94,0.00007444,0.00126613,0.00027711,-0.00130108,-0.00007067,0.00036739
 ,-0.00021372,-0.00013302,0.00062674,0.00007249,0.00200626,-0.00045819,
 0.00086206,-0.00086276,0.00086110,0.00065567,-0.00022611,0.00042966,0.
 00100093,-0.23745808,-0.29599774,0.05397964,0.24964869,-0.00024029,-0.
 00015904,0.00228078,-0.00471001,0.00014035,-0.00020038,-0.00077072,-0.
 00128404,0.00053097,0.00112762,-0.00027989,-0.00121968,0.00120309,0.00
 070008,0.00904288,-0.01960016,-0.03394429,0.01738107,0.00080681,-0.000
 02561,-0.00012310,-0.00018949,0.00015502,-0.00007831,-0.00012001,0.000
 24445,0.00001031,0.00013826,-0.00004031,-0.00002352,-0.00008047,-0.000
 54099,0.00017320,0.00093264,-0.00034380,-0.00090234,0.00013032,0.00022
 891,-0.00020688,-0.00003409,0.00022725,-0.00011102,0.00112076,-0.00041
 335,0.00046421,-0.00103260,-0.00018675,0.00160813,-0.00038745,-0.00196
 683,-0.00053187,-0.29262730,-0.59612723,0.10716785,0.36285356,0.668212
 64,0.00066809,0.00024509,-0.00204925,0.00081068,0.00081509,0.00009590,
 0.00038677,0.00131195,0.00006718,-0.00118447,0.00091289,0.00149805,-0.
 00134195,0.00030989,-0.00525904,0.01577743,0.03328947,0.00771411,-0.00
 028936,0.00025446,0.00012189,0.00012757,0.00005207,0.00015647,0.000283
 67,-0.00032257,0.00006488,-0.00018252,0.00025483,0.00002743,0.00031665
 ,0.00028777,0.00002613,-0.00095151,-0.00039032,0.00015357,0.00008764,-
 0.00037675,0.00021510,-0.00005972,-0.00005833,0.00016777,0.00047215,-0
 .00012404,-0.00021145,-0.00023677,-0.00196807,0.00184901,0.00132142,0.
 00109137,0.00151262,0.04738195,0.10347122,-0.11550812,-0.03616271,-0.1
 0108767,0.09642459,0.00059165,-0.00159389,0.00077228,0.00498581,-0.002
 29417,-0.00210580,0.00092287,0.00138824,0.00038256,-0.00209889,0.00050
 880,0.00253573,0.01306067,-0.01094256,0.00776274,-0.00596140,-0.008584
 92,-0.02361249,-0.00043442,0.00051747,-0.00016674,-0.00009950,-0.00015
 237,-0.00005790,0.00061114,-0.00058939,-0.00006312,-0.00022157,0.00076
 682,-0.00006195,0.00042293,0.00038312,-0.00004945,0.00089417,-0.000051
 73,-0.00061721,-0.00006305,0.00017056,-0.00036883,0.00007640,0.0000447
 8,-0.00010286,0.00041463,0.00012729,0.00016598,0.00300856,0.00279775,-
 0.00187847,0.00164434,-0.00054222,-0.00017988,-0.07283360,-0.00286928,
 -0.03930273,-0.03032567,-0.05068763,-0.02553897,0.19039768,-0.00040391
 ,-0.00061878,0.00012518,0.00244773,-0.00111913,-0.00303604,-0.00003541
 ,0.00181065,0.00000118,-0.00385233,0.00323026,0.00334937,-0.01400135,-
 0.02369446,0.03002088,-0.00691646,0.01228715,0.00576350,-0.00079845,0.
 00072643,-0.00004773,0.00014235,0.00000746,0.00015110,0.00050781,-0.00
 058582,0.00007920,0.00002248,0.00046205,0.00007062,0.00049124,0.000066
 51,0.00009753,0.00092996,-0.00007485,-0.00083667,0.00004177,0.00019912
 ,-0.00032650,-0.00006995,0.00023516,0.00003985,0.00072768,-0.00005093,
 0.00039882,-0.00030651,-0.00018102,0.00131502,0.00282476,0.00238165,0.
 00490305,-0.00447569,-0.07512377,0.01196336,-0.05784122,-0.04572502,-0
 .04305089,0.14002236,0.25498633,0.00147463,0.00136074,0.00159183,0.002
 84529,-0.00117832,-0.00242846,-0.00183515,-0.00144517,0.00114186,0.001
 13681,-0.00026926,-0.00089231,0.00936466,0.02926269,-0.03022758,-0.022
 70838,0.00131628,-0.04884998,-0.00063435,-0.00004892,0.00027195,-0.000
 22671,0.00052622,0.00048394,0.00015650,0.00011612,0.00046877,-0.000091
 25,0.00027956,-0.00005276,-0.00002962,0.00014440,-0.00036148,-0.000205
 29,-0.00063821,-0.00021168,-0.00000535,-0.00025699,0.00034180,-0.00035
 530,0.00037843,0.00040683,0.00017642,0.00005005,0.00003084,0.00038665,
 0.00585588,-0.00349100,-0.00355983,0.00101092,-0.00393374,-0.03444232,
 0.01889434,-0.18572360,-0.01315542,-0.02313043,0.02405582,0.07710394,-
 0.05700390,0.36871096,-0.00247318,-0.00226449,-0.00257269,-0.00502088,
 0.00105161,0.00157917,0.00099195,0.00373099,-0.00127295,-0.01083543,0.
 01203247,0.00103682,-0.09002525,-0.01682056,-0.03440884,-0.00749474,-0
 .00416745,-0.02007173,0.00073710,-0.00046707,0.00006912,0.00057745,0.0
 0019259,-0.00025311,-0.00028604,-0.00086019,-0.00028914,0.00148914,-0.
 00295600,0.00037496,0.00019010,0.00003741,0.00035148,-0.00053797,-0.00
 020623,0.00016205,0.00029611,-0.00008758,-0.00005451,-0.00010326,-0.00
 000656,-0.00002205,-0.00034528,0.00005234,0.00001501,0.00090774,-0.004
 67111,0.00139666,0.00765027,0.00047955,0.01918165,-0.04848050,-0.03850
 761,-0.02781893,0.01088519,0.00722952,0.00240837,-0.06355449,-0.005793
 82,0.00101376,0.64068890,-0.00060276,0.00133323,-0.00092741,-0.0036828
 3,0.00010888,0.00236059,0.00126700,-0.00084494,-0.00107992,0.00645322,
 -0.00653694,0.00025073,-0.00020082,-0.07386680,0.04568184,-0.00586994,
 -0.00357886,-0.01776491,0.00083233,-0.00045696,0.00005244,0.00032808,0
 .00014676,-0.00015299,-0.00082384,-0.00001567,-0.00075811,0.00074664,-
 0.00225057,0.00020895,-0.00039418,-0.00023306,-0.00010819,-0.00112703,
 -0.00024146,0.00059201,0.00004169,-0.00031481,0.00041645,-0.00011088,0
 .00008130,0.00014109,-0.00050013,0.00010094,-0.00031053,-0.00791527,-0
 .00382307,0.00277434,0.00669262,-0.00323778,0.01244300,-0.05478202,-0.
 04897536,-0.06390392,0.01242067,0.01722005,0.01056501,-0.00747090,-0.0
 8967015,0.05122968,0.27740484,0.42830215,0.00172715,-0.00171008,0.0049
 1545,0.00940985,-0.00593087,-0.00846483,0.00465301,0.00353504,0.001617
 89,-0.00914862,0.00758283,0.00514286,-0.02911460,0.02859154,-0.1905792
 4,-0.03597862,-0.01682465,-0.02049125,-0.00139011,0.00140801,-0.000258
 80,0.00075119,-0.00093785,-0.00121438,0.00088503,-0.00175997,-0.000532
 88,0.00113079,-0.00210543,0.00065329,0.00102375,0.00172111,0.00053325,
 0.00083520,0.00005104,-0.00105940,0.00011947,0.00015018,-0.00121585,0.
 00024648,-0.00003492,-0.00075450,0.00067204,0.00007881,0.00018878,-0.0
 0000946,0.00208505,-0.00122322,-0.00779564,0.00073725,-0.00757349,0.01
 407034,-0.01324646,0.05252639,-0.01604064,-0.01170861,-0.01233718,0.00
 517054,0.05594984,-0.15322344,0.34021360,0.11583113,0.64227528,-0.0003
 2968,-0.00067622,-0.00174677,-0.00099341,0.00080860,0.00150985,0.00037
 045,0.00046069,-0.00043672,0.00162360,-0.00371233,-0.00202269,-0.01429
 670,-0.01032626,-0.02827628,0.00394827,0.00212198,-0.00552472,0.000237
 10,-0.00002368,0.00001756,-0.00012423,-0.00008159,0.00019538,-0.000465
 05,0.00072171,0.00024533,-0.00037554,0.00079185,-0.00002785,-0.0000924
 9,-0.00034351,-0.00009694,0.00017464,0.00010338,0.00002766,-0.00010618
 ,0.00007190,0.00012656,0.00003538,0.00001589,0.00013995,0.00001634,0.0
 0003000,0.00003946,-0.00184500,-0.00007908,-0.00023345,0.00007043,-0.0
 0019530,-0.00195247,0.01136369,0.00268378,0.01729578,-0.00532264,-0.00
 506235,-0.00409440,-0.04143827,-0.05366306,-0.01640970,-0.43525695,-0.
 22270650,-0.28143072,0.48280622,-0.00019883,-0.00079470,-0.00134122,-0
 .00065684,0.00085613,0.00088824,-0.00005949,-0.00008284,0.00027567,0.0
 0138492,-0.00138294,0.00049075,-0.00795422,0.01460723,-0.00831716,0.00
 138385,0.00293555,0.00119263,0.00010582,-0.00009514,-0.00002862,-0.000
 29526,0.00008065,0.00030457,0.00055854,0.00018348,0.00032041,-0.000852
 51,0.00210806,-0.00015783,-0.00002576,-0.00019893,0.00001066,0.0003159
 3,0.00012481,-0.00008406,-0.00001363,0.00011165,0.00003374,0.00000423,
 -0.00002658,0.00009401,-0.00000787,0.00005501,0.00008936,0.00106502,0.
 00071384,-0.00088579,0.00072032,-0.00051401,-0.00149900,0.00688464,0.0
 0528513,0.02372845,-0.00506813,-0.00609159,-0.00548248,-0.06094816,-0.
 03954883,-0.02645411,-0.22540264,-0.21324689,-0.16346299,0.28906008,0.
 23492092,-0.00102249,-0.00074442,-0.00276526,-0.00308184,0.00164205,0.
 00304292,0.00014175,-0.00004018,-0.00090124,0.00110513,-0.00255605,-0.
 00097700,-0.04330899,-0.01948473,-0.02095440,0.00432896,0.00498754,-0.
 00597766,0.00061148,-0.00042850,0.00006110,-0.00041027,0.00029801,0.00
 056008,-0.00017722,0.00049780,0.00026331,-0.00022922,0.00087986,-0.000
 43208,-0.00016215,-0.00059551,-0.00022294,-0.00010842,0.00002339,0.000
 24421,-0.00005845,0.00000891,0.00037383,-0.00008276,0.00003348,0.00031
 299,-0.00033611,0.00015070,-0.00000268,-0.00151417,-0.00156803,0.00032
 840,0.00177199,-0.00048277,0.00148268,-0.00103733,0.00389735,-0.003481
 54,0.00174101,0.00066439,0.00121453,0.00021261,-0.00992678,0.03189144,
 -0.28103870,-0.15754127,-0.30892472,0.32265519,0.18028476,0.30486402\\
 -0.00000114,-0.00001105,0.00001384,-0.00000446,0.00000125,0.00001355,0
 .00000458,-0.00000699,-0.00000533,0.00001578,0.00001633,0.00001374,-0.
 00000544,-0.00000244,0.00000061,0.00000266,0.00001968,-0.00000087,-0.0
 0000108,0.00001088,0.00000155,-0.00000028,-0.00000273,0.00000734,-0.00
 000037,0.00000202,-0.00000838,-0.00000131,0.00000742,0.00000549,-0.000
 00423,0.00000099,-0.00000627,0.00000445,-0.00000569,-0.00000262,-0.000
 00010,-0.00000408,0.00000274,0.00000509,-0.00000368,0.00000482,-0.0000
 0328,-0.00000949,-0.00000662,0.00000297,-0.00000618,-0.00001247,-0.000
 00348,0.00001395,-0.00000699,-0.00003629,-0.00002275,-0.00001723,0.000
 01610,0.00001122,-0.00000120,0.00000967,0.00000505,-0.00000306,-0.0000
 0338,-0.00002790,0.00000737,0.00000354,0.00001417,0.\\\@


 ABSOLUTISM, OBSOLETISM -- IF IT WORKS, IT'S OUT OF DATE

                          -- STAFFORD BEER
 Job cpu time:       0 days  0 hours 14 minutes 18.5 seconds.
 File lengths (MBytes):  RWF=    111 Int=      0 D2E=      0 Chk=      4 Scr=      1
 Normal termination of Gaussian 09 at Tue Jun 28 08:29:39 2016.
