 Entering Gaussian System, Link 0=g09
 Input=water.gjf
 Output=water.out
 Initial command:
 /n/sw/g09_D.01/g09/l1.exe "/scratch/Gau-16917.inp" -scrdir="/scratch/"
 Entering Link 1 = /n/sw/g09_D.01/g09/l1.exe PID=     16918.
  
 Copyright (c) 1988,1990,1992,1993,1995,1998,2003,2009,2013,
            Gaussian, Inc.  All Rights Reserved.
  
 This is part of the Gaussian(R) 09 program.  It is based on
 the Gaussian(R) 03 system (copyright 2003, Gaussian, Inc.),
 the Gaussian(R) 98 system (copyright 1998, Gaussian, Inc.),
 the Gaussian(R) 94 system (copyright 1995, Gaussian, Inc.),
 the Gaussian 92(TM) system (copyright 1992, Gaussian, Inc.),
 the Gaussian 90(TM) system (copyright 1990, Gaussian, Inc.),
 the Gaussian 88(TM) system (copyright 1988, Gaussian, Inc.),
 the Gaussian 86(TM) system (copyright 1986, Carnegie Mellon
 University), and the Gaussian 82(TM) system (copyright 1983,
 Carnegie Mellon University). Gaussian is a federally registered
 trademark of Gaussian, Inc.
  
 This software contains proprietary and confidential information,
 including trade secrets, belonging to Gaussian, Inc.
  
 This software is provided under written license and may be
 used, copied, transmitted, or stored only in accord with that
 written license.
  
 The following legend is applicable only to US Government
 contracts under FAR:
  
                    RESTRICTED RIGHTS LEGEND
  
 Use, reproduction and disclosure by the US Government is
 subject to restrictions as set forth in subparagraphs (a)
 and (c) of the Commercial Computer Software - Restricted
 Rights clause in FAR 52.227-19.
  
 Gaussian, Inc.
 340 Quinnipiac St., Bldg. 40, Wallingford CT 06492
  
  
 ---------------------------------------------------------------
 Warning -- This program may not be used in any manner that
 competes with the business of Gaussian, Inc. or will provide
 assistance to any competitor of Gaussian, Inc.  The licensee
 of this program is prohibited from giving any competitor of
 Gaussian, Inc. access to this program.  By using this program,
 the user acknowledges that Gaussian, Inc. is engaged in the
 business of creating and licensing software in the field of
 computational chemistry and represents and warrants to the
 licensee that it is not a competitor of Gaussian, Inc. and that
 it will not use this program in any manner prohibited above.
 ---------------------------------------------------------------
  

 Cite this work as:
 Gaussian 09, Revision D.01,
 M. J. Frisch, G. W. Trucks, H. B. Schlegel, G. E. Scuseria, 
 M. A. Robb, J. R. Cheeseman, G. Scalmani, V. Barone, B. Mennucci, 
 G. A. Petersson, H. Nakatsuji, M. Caricato, X. Li, H. P. Hratchian, 
 A. F. Izmaylov, J. Bloino, G. Zheng, J. L. Sonnenberg, M. Hada, 
 M. Ehara, K. Toyota, R. Fukuda, J. Hasegawa, M. Ishida, T. Nakajima, 
 Y. Honda, O. Kitao, H. Nakai, T. Vreven, J. A. Montgomery, Jr., 
 J. E. Peralta, F. Ogliaro, M. Bearpark, J. J. Heyd, E. Brothers, 
 K. N. Kudin, V. N. Staroverov, T. Keith, R. Kobayashi, J. Normand, 
 K. Raghavachari, A. Rendell, J. C. Burant, S. S. Iyengar, J. Tomasi, 
 M. Cossi, N. Rega, J. M. Millam, M. Klene, J. E. Knox, J. B. Cross, 
 V. Bakken, C. Adamo, J. Jaramillo, R. Gomperts, R. E. Stratmann, 
 O. Yazyev, A. J. Austin, R. Cammi, C. Pomelli, J. W. Ochterski, 
 R. L. Martin, K. Morokuma, V. G. Zakrzewski, G. A. Voth, 
 P. Salvador, J. J. Dannenberg, S. Dapprich, A. D. Daniels, 
 O. Farkas, J. B. Foresman, J. V. Ortiz, J. Cioslowski, 
 and D. J. Fox, Gaussian, Inc., Wallingford CT, 2013.
 
 ******************************************
 Gaussian 09:  EM64L-G09RevD.01 24-Apr-2013
                24-Feb-2017 
 ******************************************
 %nprocshared=2
 Will use up to    2 processors via shared memory.
 %mem=1GB
 --------------------------------
 #p b3lyp/6-31g* opt freq=noraman
 --------------------------------
 1/14=-1,18=20,19=15,26=3,38=1/1,3;
 2/9=110,12=2,17=6,18=5,40=1/2;
 3/5=1,6=6,7=1,11=2,16=1,25=1,30=1,71=1,74=-5/1,2,3;
 4//1;
 5/5=2,38=5/2;
 6/7=2,8=2,9=2,10=2,28=1/1;
 7//1,2,3,16;
 1/14=-1,18=20,19=15,26=3/3(2);
 2/9=110/2;
 99//99;
 2/9=110/2;
 3/5=1,6=6,7=1,11=2,16=1,25=1,30=1,71=1,74=-5/1,2,3;
 4/5=5,16=3,69=1/1;
 5/5=2,38=5/2;
 7//1,2,3,16;
 1/14=-1,18=20,19=15,26=3/3(-5);
 2/9=110/2;
 6/7=2,8=2,9=2,10=2,19=2,28=1/1;
 99/9=1/99;
 Leave Link    1 at Fri Feb 24 13:16:22 2017, MaxMem=   134217728 cpu:         0.1
 (Enter /n/sw/g09_D.01/g09/l101.exe)
 -------------------
 Title Card Required
 -------------------
 Symbolic Z-matrix:
 Charge =  0 Multiplicity = 1
 O                    -2.74194  -1.01613   0. 
 H                    -1.78194  -1.01613   0. 
 H                    -3.06239  -0.11119   0. 
 
 NAtoms=      3 NQM=        3 NQMF=       0 NMMI=      0 NMMIF=      0
                NMic=       0 NMicF=      0.
                    Isotopes and Nuclear Properties:
 (Nuclear quadrupole moments (NQMom) in fm**2, nuclear magnetic moments (NMagM)
  in nuclear magnetons)

  Atom         1           2           3
 IAtWgt=          16           1           1
 AtmWgt=  15.9949146   1.0078250   1.0078250
 NucSpn=           0           1           1
 AtZEff=   0.0000000   0.0000000   0.0000000
 NQMom=    0.0000000   0.0000000   0.0000000
 NMagM=    0.0000000   2.7928460   2.7928460
 AtZNuc=   8.0000000   1.0000000   1.0000000
 Leave Link  101 at Fri Feb 24 13:16:22 2017, MaxMem=   134217728 cpu:         0.5
 (Enter /n/sw/g09_D.01/g09/l103.exe)

 GradGradGradGradGradGradGradGradGradGradGradGradGradGradGradGradGradGrad
 Berny optimization.
 Initialization pass.
                           ----------------------------
                           !    Initial Parameters    !
                           ! (Angstroms and Degrees)  !
 --------------------------                            --------------------------
 ! Name  Definition              Value          Derivative Info.                !
 --------------------------------------------------------------------------------
 ! R1    R(1,2)                  0.96           estimate D2E/DX2                !
 ! R2    R(1,3)                  0.96           estimate D2E/DX2                !
 ! A1    A(2,1,3)              109.5            estimate D2E/DX2                !
 --------------------------------------------------------------------------------
 Trust Radius=3.00D-01 FncErr=1.00D-07 GrdErr=1.00D-06
 Number of steps in this run=     20 maximum allowed number of steps=    100.
 GradGradGradGradGradGradGradGradGradGradGradGradGradGradGradGradGradGrad

 Leave Link  103 at Fri Feb 24 13:16:23 2017, MaxMem=   134217728 cpu:         0.0
 (Enter /n/sw/g09_D.01/g09/l202.exe)
                          Input orientation:                          
 ---------------------------------------------------------------------
 Center     Atomic      Atomic             Coordinates (Angstroms)
 Number     Number       Type             X           Y           Z
 ---------------------------------------------------------------------
      1          8           0       -2.741936   -1.016129    0.000000
      2          1           0       -1.781936   -1.016129    0.000000
      3          1           0       -3.062390   -0.111193    0.000000
 ---------------------------------------------------------------------
                    Distance matrix (angstroms):
                    1          2          3
     1  O    0.000000
     2  H    0.960000   0.000000
     3  H    0.960000   1.567952   0.000000
 Stoichiometry    H2O
 Framework group  C2V[C2(O),SGV(H2)]
 Deg. of freedom     2
 Full point group                 C2V     NOp   4
 Largest Abelian subgroup         C2V     NOp   4
 Largest concise Abelian subgroup C2      NOp   2
                         Standard orientation:                         
 ---------------------------------------------------------------------
 Center     Atomic      Atomic             Coordinates (Angstroms)
 Number     Number       Type             X           Y           Z
 ---------------------------------------------------------------------
      1          8           0        0.000000    0.000000    0.110812
      2          1           0        0.000000    0.783976   -0.443248
      3          1           0        0.000000   -0.783976   -0.443248
 ---------------------------------------------------------------------
 Rotational constants (GHZ):    919.6759643    407.9403261    282.5913749
 Leave Link  202 at Fri Feb 24 13:16:23 2017, MaxMem=   134217728 cpu:         0.0
 (Enter /n/sw/g09_D.01/g09/l301.exe)
 Standard basis: 6-31G(d) (6D, 7F)
 Ernie: Thresh=  0.10000D-02 Tol=  0.10000D-05 Strict=F.
 There are    10 symmetry adapted cartesian basis functions of A1  symmetry.
 There are     1 symmetry adapted cartesian basis functions of A2  symmetry.
 There are     3 symmetry adapted cartesian basis functions of B1  symmetry.
 There are     5 symmetry adapted cartesian basis functions of B2  symmetry.
 There are    10 symmetry adapted basis functions of A1  symmetry.
 There are     1 symmetry adapted basis functions of A2  symmetry.
 There are     3 symmetry adapted basis functions of B1  symmetry.
 There are     5 symmetry adapted basis functions of B2  symmetry.
    19 basis functions,    36 primitive gaussians,    19 cartesian basis functions
     5 alpha electrons        5 beta electrons
       nuclear repulsion energy         9.1571159843 Hartrees.
 IExCor=  402 DFT=T Ex+Corr=B3LYP ExCW=0 ScaHFX=  0.200000
 ScaDFX=  0.800000  0.720000  1.000000  0.810000 ScalE2=  1.000000  1.000000
 IRadAn=      0 IRanWt=     -1 IRanGd=            0 ICorTp=0 IEmpDi=  4
 NAtoms=    3 NActive=    3 NUniq=    2 SFac= 2.25D+00 NAtFMM=   60 NAOKFM=F Big=F
 Integral buffers will be    131072 words long.
 Raffenetti 2 integral format.
 Two-electron integral symmetry is turned on.
 Leave Link  301 at Fri Feb 24 13:16:23 2017, MaxMem=   134217728 cpu:         0.4
 (Enter /n/sw/g09_D.01/g09/l302.exe)
 NPDir=0 NMtPBC=     1 NCelOv=     1 NCel=       1 NClECP=     1 NCelD=      1
         NCelK=      1 NCelE2=     1 NClLst=     1 CellRange=     0.0.
 One-electron integrals computed using PRISM.
 One-electron integral symmetry used in STVInt
 NBasis=    19 RedAO= T EigKep=  4.18D-02  NBF=    10     1     3     5
 NBsUse=    19 1.00D-06 EigRej= -1.00D+00 NBFU=    10     1     3     5
 Precomputing XC quadrature grid using
 IXCGrd= 4 IRadAn=           0 IRanWt=          -1 IRanGd=           0 AccXCQ= 0.00D+00.
 Generated NRdTot=       0 NPtTot=           0 NUsed=           0 NTot=          32
 NSgBfM=    19    19    19    19    19 MxSgAt=     3 MxSgA2=     3.
 Leave Link  302 at Fri Feb 24 13:16:24 2017, MaxMem=   134217728 cpu:         0.8
 (Enter /n/sw/g09_D.01/g09/l303.exe)
 DipDrv:  MaxL=1.
 Leave Link  303 at Fri Feb 24 13:16:24 2017, MaxMem=   134217728 cpu:         0.4
 (Enter /n/sw/g09_D.01/g09/l401.exe)
 ExpMin= 1.61D-01 ExpMax= 5.48D+03 ExpMxC= 8.25D+02 IAcc=1 IRadAn=         1 AccDes= 0.00D+00
 Harris functional with IExCor=  402 and IRadAn=       1 diagonalized for initial guess.
 HarFok:  IExCor=  402 AccDes= 0.00D+00 IRadAn=         1 IDoV= 1 UseB2=F ITyADJ=14
 ICtDFT=  3500011 ScaDFX=  1.000000  1.000000  1.000000  1.000000
 FoFCou: FMM=F IPFlag=           0 FMFlag=      100000 FMFlg1=           0
         NFxFlg=           0 DoJE=T BraDBF=F KetDBF=T FulRan=T
         wScrn=  0.000000 ICntrl=     500 IOpCl=  0 I1Cent=   200000004 NGrid=           0
         NMat0=    1 NMatS0=      1 NMatT0=    0 NMatD0=    1 NMtDS0=    0 NMtDT0=    0
 Petite list used in FoFCou.
 Harris En= -76.4480898889016    
 JPrj=0 DoOrth=F DoCkMO=F.
 Initial guess orbital symmetries:
       Occupied  (A1) (A1) (B2) (A1) (B1)
       Virtual   (A1) (B2) (B2) (A1) (B1) (A1) (B2) (A1) (A2) (A1)
                 (B1) (A1) (B2) (A1)
 The electronic state of the initial guess is 1-A1.
 Leave Link  401 at Fri Feb 24 13:16:25 2017, MaxMem=   134217728 cpu:         0.7
 (Enter /n/sw/g09_D.01/g09/l502.exe)
 Closed shell SCF:
 Using DIIS extrapolation, IDIIS=  1040.
 Integral symmetry usage will be decided dynamically.
 Keep R1 ints in memory in symmetry-blocked form, NReq=898557.
 IVT=       20213 IEndB=       20213 NGot=   134217728 MDV=   134191146
 LenX=   134191146 LenY=   134190264
 Requested convergence on RMS density matrix=1.00D-08 within 128 cycles.
 Requested convergence on MAX density matrix=1.00D-06.
 Requested convergence on             energy=1.00D-06.
 No special actions if energy rises.
 FoFCou: FMM=F IPFlag=           0 FMFlag=           0 FMFlg1=           0
         NFxFlg=           0 DoJE=F BraDBF=F KetDBF=F FulRan=T
         wScrn=  0.000000 ICntrl=     600 IOpCl=  0 I1Cent=           0 NGrid=           0
         NMat0=    1 NMatS0=    190 NMatT0=    0 NMatD0=    1 NMtDS0=    0 NMtDT0=    0
 Petite list used in FoFCou.
 Integral accuracy reduced to 1.0D-05 until final iterations.

 Cycle   1  Pass 0  IDiag  1:
 E= -76.3286847940598    
 DIIS: error= 8.13D-02 at cycle   1 NSaved=   1.
 NSaved= 1 IEnMin= 1 EnMin= -76.3286847940598     IErMin= 1 ErrMin= 8.13D-02
 ErrMax= 8.13D-02  0.00D+00 EMaxC= 1.00D-01 BMatC= 1.07D-01 BMatP= 1.07D-01
 IDIUse=3 WtCom= 1.87D-01 WtEn= 8.13D-01
 Coeff-Com:  0.100D+01
 Coeff-En:   0.100D+01
 Coeff:      0.100D+01
 Gap=     0.211 Goal=   None    Shift=    0.000
 GapD=    0.211 DampG=1.000 DampE=0.500 DampFc=0.5000 IDamp=-1.
 Damping current iteration by 5.00D-01
 RMSDP=2.97D-02 MaxDP=2.22D-01              OVMax= 1.98D-01

 Cycle   2  Pass 0  IDiag  1:
 E= -76.3563586961174     Delta-E=       -0.027673902058 Rises=F Damp=T
 DIIS: error= 1.88D-02 at cycle   2 NSaved=   2.
 NSaved= 2 IEnMin= 2 EnMin= -76.3563586961174     IErMin= 2 ErrMin= 1.88D-02
 ErrMax= 1.88D-02  0.00D+00 EMaxC= 1.00D-01 BMatC= 6.21D-03 BMatP= 1.07D-01
 IDIUse=3 WtCom= 8.12D-01 WtEn= 1.88D-01
 Coeff-Com:  0.178D+00 0.822D+00
 Coeff-En:   0.292D+00 0.708D+00
 Coeff:      0.200D+00 0.800D+00
 Gap=     0.341 Goal=   None    Shift=    0.000
 RMSDP=3.57D-03 MaxDP=3.74D-02 DE=-2.77D-02 OVMax= 1.12D-01

 Cycle   3  Pass 0  IDiag  1:
 E= -76.4078896923839     Delta-E=       -0.051530996266 Rises=F Damp=F
 DIIS: error= 3.12D-03 at cycle   3 NSaved=   3.
 NSaved= 3 IEnMin= 3 EnMin= -76.4078896923839     IErMin= 3 ErrMin= 3.12D-03
 ErrMax= 3.12D-03  0.00D+00 EMaxC= 1.00D-01 BMatC= 1.91D-04 BMatP= 6.21D-03
 IDIUse=3 WtCom= 9.69D-01 WtEn= 3.12D-02
 Coeff-Com:  0.381D-01-0.125D-02 0.963D+00
 Coeff-En:   0.000D+00 0.000D+00 0.100D+01
 Coeff:      0.369D-01-0.121D-02 0.964D+00
 Gap=     0.355 Goal=   None    Shift=    0.000
 RMSDP=4.63D-04 MaxDP=3.84D-03 DE=-5.15D-02 OVMax= 3.14D-03

 Cycle   4  Pass 0  IDiag  1:
 E= -76.4080189469301     Delta-E=       -0.000129254546 Rises=F Damp=F
 DIIS: error= 3.81D-04 at cycle   4 NSaved=   4.
 NSaved= 4 IEnMin= 4 EnMin= -76.4080189469301     IErMin= 4 ErrMin= 3.81D-04
 ErrMax= 3.81D-04  0.00D+00 EMaxC= 1.00D-01 BMatC= 2.23D-06 BMatP= 1.91D-04
 IDIUse=3 WtCom= 9.96D-01 WtEn= 3.81D-03
 Coeff-Com:  0.578D-02-0.167D-01 0.206D+00 0.805D+00
 Coeff-En:   0.000D+00 0.000D+00 0.000D+00 0.100D+01
 Coeff:      0.576D-02-0.166D-01 0.205D+00 0.805D+00
 Gap=     0.355 Goal=   None    Shift=    0.000
 RMSDP=3.89D-05 MaxDP=1.86D-04 DE=-1.29D-04 OVMax= 2.73D-04

 Cycle   5  Pass 0  IDiag  1:
 E= -76.4080205280056     Delta-E=       -0.000001581075 Rises=F Damp=F
 DIIS: error= 5.10D-05 at cycle   5 NSaved=   5.
 NSaved= 5 IEnMin= 5 EnMin= -76.4080205280056     IErMin= 5 ErrMin= 5.10D-05
 ErrMax= 5.10D-05  0.00D+00 EMaxC= 1.00D-01 BMatC= 3.61D-08 BMatP= 2.23D-06
 IDIUse=1 WtCom= 1.00D+00 WtEn= 0.00D+00
 Coeff-Com:  0.471D-03-0.265D-03-0.105D-02-0.895D-02 0.101D+01
 Coeff:      0.471D-03-0.265D-03-0.105D-02-0.895D-02 0.101D+01
 Gap=     0.355 Goal=   None    Shift=    0.000
 RMSDP=7.46D-06 MaxDP=6.58D-05 DE=-1.58D-06 OVMax= 4.17D-05

 Initial convergence to 1.0D-05 achieved.  Increase integral accuracy.
 Cycle   6  Pass 1  IDiag  1:
 E= -76.4080189876589     Delta-E=        0.000001540347 Rises=F Damp=F
 DIIS: error= 1.44D-06 at cycle   1 NSaved=   1.
 NSaved= 1 IEnMin= 1 EnMin= -76.4080189876589     IErMin= 1 ErrMin= 1.44D-06
 ErrMax= 1.44D-06  0.00D+00 EMaxC= 1.00D-01 BMatC= 4.70D-11 BMatP= 4.70D-11
 IDIUse=1 WtCom= 1.00D+00 WtEn= 0.00D+00
 Coeff-Com:  0.100D+01
 Coeff:      0.100D+01
 Gap=     0.355 Goal=   None    Shift=    0.000
 RMSDP=7.46D-06 MaxDP=6.58D-05 DE= 1.54D-06 OVMax= 2.41D-06

 Cycle   7  Pass 1  IDiag  1:
 E= -76.4080189877008     Delta-E=       -0.000000000042 Rises=F Damp=F
 DIIS: error= 3.81D-07 at cycle   2 NSaved=   2.
 NSaved= 2 IEnMin= 2 EnMin= -76.4080189877008     IErMin= 2 ErrMin= 3.81D-07
 ErrMax= 3.81D-07  0.00D+00 EMaxC= 1.00D-01 BMatC= 2.05D-12 BMatP= 4.70D-11
 IDIUse=1 WtCom= 1.00D+00 WtEn= 0.00D+00
 Coeff-Com:  0.486D-01 0.951D+00
 Coeff:      0.486D-01 0.951D+00
 Gap=     0.355 Goal=   None    Shift=    0.000
 RMSDP=9.24D-08 MaxDP=7.51D-07 DE=-4.19D-11 OVMax= 6.09D-07

 Cycle   8  Pass 1  IDiag  1:
 E= -76.4080189877010     Delta-E=        0.000000000000 Rises=F Damp=F
 DIIS: error= 3.47D-07 at cycle   3 NSaved=   3.
 NSaved= 3 IEnMin= 3 EnMin= -76.4080189877010     IErMin= 3 ErrMin= 3.47D-07
 ErrMax= 3.47D-07  0.00D+00 EMaxC= 1.00D-01 BMatC= 1.93D-12 BMatP= 2.05D-12
 IDIUse=1 WtCom= 1.00D+00 WtEn= 0.00D+00
 Coeff-Com: -0.900D-02 0.494D+00 0.515D+00
 Coeff:     -0.900D-02 0.494D+00 0.515D+00
 Gap=     0.355 Goal=   None    Shift=    0.000
 RMSDP=5.22D-08 MaxDP=3.70D-07 DE=-1.71D-13 OVMax= 3.69D-07

 Cycle   9  Pass 1  IDiag  1:
 E= -76.4080189877023     Delta-E=       -0.000000000001 Rises=F Damp=F
 DIIS: error= 6.00D-08 at cycle   4 NSaved=   4.
 NSaved= 4 IEnMin= 4 EnMin= -76.4080189877023     IErMin= 4 ErrMin= 6.00D-08
 ErrMax= 6.00D-08  0.00D+00 EMaxC= 1.00D-01 BMatC= 7.03D-14 BMatP= 1.93D-12
 IDIUse=1 WtCom= 1.00D+00 WtEn= 0.00D+00
 Coeff-Com: -0.744D-02 0.123D+00 0.216D+00 0.668D+00
 Coeff:     -0.744D-02 0.123D+00 0.216D+00 0.668D+00
 Gap=     0.355 Goal=   None    Shift=    0.000
 RMSDP=9.42D-09 MaxDP=7.59D-08 DE=-1.26D-12 OVMax= 6.83D-08

 SCF Done:  E(RB3LYP) =  -76.4080189877     A.U. after    9 cycles
            NFock=  9  Conv=0.94D-08     -V/T= 2.0075
 KE= 7.583704026477D+01 PE=-1.989174639353D+02 EE= 3.751528869856D+01
 Leave Link  502 at Fri Feb 24 13:16:26 2017, MaxMem=   134217728 cpu:         0.8
 (Enter /n/sw/g09_D.01/g09/l601.exe)
 Copying SCF densities to generalized density rwf, IOpCl= 0 IROHF=0.

 **********************************************************************

            Population analysis using the SCF density.

 **********************************************************************

 Orbital symmetries:
       Occupied  (A1) (A1) (B2) (A1) (B1)
       Virtual   (A1) (B2) (B2) (A1) (B1) (A1) (B2) (A1) (A2) (A1)
                 (B1) (A1) (B2) (A1)
 The electronic state is 1-A1.
 Alpha  occ. eigenvalues --  -19.13348  -0.99651  -0.53006  -0.36084  -0.28978
 Alpha virt. eigenvalues --    0.06550   0.15268   0.80048   0.84879   0.89219
 Alpha virt. eigenvalues --    0.89240   1.07367   1.17571   1.73998   1.74508
 Alpha virt. eigenvalues --    1.78547   2.29894   2.59364   3.56652
          Condensed to atoms (all electrons):
               1          2          3
     1  O    8.292273   0.247237   0.247237
     2  H    0.247237   0.380379  -0.020990
     3  H    0.247237  -0.020990   0.380379
 Mulliken charges:
               1
     1  O   -0.786747
     2  H    0.393374
     3  H    0.393374
 Sum of Mulliken charges =   0.00000
 Mulliken charges with hydrogens summed into heavy atoms:
               1
     1  O    0.000000
 Electronic spatial extent (au):  <R**2>=             19.0479
 Charge=              0.0000 electrons
 Dipole moment (field-independent basis, Debye):
    X=              0.0000    Y=              0.0000    Z=             -1.9998  Tot=              1.9998
 Quadrupole moment (field-independent basis, Debye-Ang):
   XX=             -7.1850   YY=             -4.0398   ZZ=             -6.1319
   XY=              0.0000   XZ=              0.0000   YZ=              0.0000
 Traceless Quadrupole moment (field-independent basis, Debye-Ang):
   XX=             -1.3995   YY=              1.7458   ZZ=             -0.3463
   XY=              0.0000   XZ=              0.0000   YZ=              0.0000
 Octapole moment (field-independent basis, Debye-Ang**2):
  XXX=              0.0000  YYY=              0.0000  ZZZ=             -1.1312  XYY=              0.0000
  XXY=              0.0000  XXZ=             -0.3152  XZZ=              0.0000  YZZ=              0.0000
  YYZ=             -1.2153  XYZ=              0.0000
 Hexadecapole moment (field-independent basis, Debye-Ang**3):
 XXXX=             -5.1928 YYYY=             -5.8017 ZZZZ=             -6.1244 XXXY=              0.0000
 XXXZ=              0.0000 YYYX=              0.0000 YYYZ=              0.0000 ZZZX=              0.0000
 ZZZY=              0.0000 XXYY=             -2.1088 XXZZ=             -1.9233 YYZZ=             -1.7430
 XXYZ=              0.0000 YYXZ=              0.0000 ZZXY=              0.0000
 N-N= 9.157115984281D+00 E-N=-1.989174652910D+02  KE= 7.583704026477D+01
 Symmetry A1   KE= 6.768763457128D+01
 Symmetry A2   KE= 6.795817458822D-35
 Symmetry B1   KE= 4.591516919577D+00
 Symmetry B2   KE= 3.557888773907D+00
 No NMR shielding tensors so no spin-rotation constants.
 Leave Link  601 at Fri Feb 24 13:16:26 2017, MaxMem=   134217728 cpu:         0.6
 (Enter /n/sw/g09_D.01/g09/l701.exe)
 Compute integral first derivatives.
 ... and contract with generalized density number  0.
 Leave Link  701 at Fri Feb 24 13:16:27 2017, MaxMem=   134217728 cpu:         0.6
 (Enter /n/sw/g09_D.01/g09/l702.exe)
 L702 exits ... SP integral derivatives will be done elsewhere.
 Leave Link  702 at Fri Feb 24 13:16:27 2017, MaxMem=   134217728 cpu:         0.1
 (Enter /n/sw/g09_D.01/g09/l703.exe)
 Compute integral first derivatives, UseDBF=F ICtDFT=           0.
 Integral derivatives from FoFJK, PRISM(SPDF).
 Calling FoFJK, ICntrl=      2127 FMM=F ISym2X=1 I1Cent= 0 IOpClX= 0 NMat=1 NMatS=1 NMatT=0.
 FoFJK:  IHMeth= 1 ICntrl=    2127 DoSepK=F KAlg= 0 I1Cent=   0 FoldK=F
 IRaf=         0 NMat=   1 IRICut=       1 DoRegI=T DoRafI=F ISym2E= 1.
 FoFCou: FMM=F IPFlag=           0 FMFlag=      100000 FMFlg1=         800
         NFxFlg=           0 DoJE=F BraDBF=F KetDBF=F FulRan=T
         wScrn=  0.000000 ICntrl=    2127 IOpCl=  0 I1Cent=           0 NGrid=           0
         NMat0=    1 NMatS0=      1 NMatT0=    0 NMatD0=    1 NMtDS0=    0 NMtDT0=    0
 Petite list used in FoFCou.
 Leave Link  703 at Fri Feb 24 13:16:27 2017, MaxMem=   134217728 cpu:         0.5
 (Enter /n/sw/g09_D.01/g09/l716.exe)
 Dipole        =-6.87614968D-17 8.88178420D-16-7.86781683D-01
 ***** Axes restored to original set *****
 -------------------------------------------------------------------
 Center     Atomic                   Forces (Hartrees/Bohr)
 Number     Number              X              Y              Z
 -------------------------------------------------------------------
      1        8          -0.012135522   -0.017171367    0.000000000
      2        1           0.005547964    0.008953040    0.000000000
      3        1           0.006587558    0.008218327    0.000000000
 -------------------------------------------------------------------
 Cartesian Forces:  Max     0.017171367 RMS     0.008589402
 Leave Link  716 at Fri Feb 24 13:16:28 2017, MaxMem=   134217728 cpu:         0.1
 (Enter /n/sw/g09_D.01/g09/l103.exe)

 GradGradGradGradGradGradGradGradGradGradGradGradGradGradGradGradGradGrad
 Berny optimization.
 FormGI is forming the generalized inverse of G from B-inverse, IUseBI=4.
 Internal  Forces:  Max     0.016242041 RMS     0.010414153
 Search for a local minimum.
 Step number   1 out of a maximum of   20
 All quantities printed in internal units (Hartrees-Bohrs-Radians)
 RMS Force = .10414D-01 SwitMx=.10000D-02 MixMth= 1
 Mixed Optimization -- RFO/linear search
 Second derivative matrix not updated -- first step.
 The second derivative matrix:
                          R1        R2        A1
           R1           0.55473
           R2           0.00000   0.55473
           A1           0.00000   0.00000   0.16000
 ITU=  0
     Eigenvalues ---    0.16000   0.55473   0.55473
 RFO step:  Lambda=-1.74164668D-03 EMin= 1.60000000D-01
 Linear search not attempted -- first point.
 Iteration  1 RMS(Cart)=  0.05237513 RMS(Int)=  0.00189126
 Iteration  2 RMS(Cart)=  0.00180710 RMS(Int)=  0.00000046
 Iteration  3 RMS(Cart)=  0.00000041 RMS(Int)=  0.00000000
 ITry= 1 IFail=0 DXMaxC= 5.33D-02 DCOld= 1.00D+10 DXMaxT= 3.00D-01 DXLimC= 3.00D+00 Rises=F
 ClnCor:  largest displacement from symmetrization is 3.42D-15 for atom     3.
 Variable       Old X    -DE/DX   Delta X   Delta X   Delta X     New X
                                 (Linear)    (Quad)   (Total)
    R1        1.81414   0.00555   0.00000   0.00997   0.00997   1.82411
    R2        1.81414   0.00555   0.00000   0.00997   0.00997   1.82411
    A1        1.91114  -0.01624   0.00000  -0.10042  -0.10042   1.81072
         Item               Value     Threshold  Converged?
 Maximum Force            0.016242     0.000450     NO 
 RMS     Force            0.010414     0.000300     NO 
 Maximum Displacement     0.053268     0.001800     NO 
 RMS     Displacement     0.053288     0.001200     NO 
 Predicted change in Energy=-8.797770D-04
 Lowest energy point so far.  Saving SCF results.
 GradGradGradGradGradGradGradGradGradGradGradGradGradGradGradGradGradGrad

 Leave Link  103 at Fri Feb 24 13:16:28 2017, MaxMem=   134217728 cpu:         0.3
 (Enter /n/sw/g09_D.01/g09/l202.exe)
                          Input orientation:                          
 ---------------------------------------------------------------------
 Center     Atomic      Atomic             Coordinates (Angstroms)
 Number     Number       Type             X           Y           Z
 ---------------------------------------------------------------------
      1          8           0       -2.758059   -1.038944    0.000000
      2          1           0       -1.794000   -0.990498    0.000000
      3          1           0       -3.034202   -0.114010    0.000000
 ---------------------------------------------------------------------
                    Distance matrix (angstroms):
                    1          2          3
     1  O    0.000000
     2  H    0.965276   0.000000
     3  H    0.965276   1.518661   0.000000
 Stoichiometry    H2O
 Framework group  C2V[C2(O),SGV(H2)]
 Deg. of freedom     2
 Full point group                 C2V     NOp   4
 RotChk:  IX=0 Diff= 1.26D-15
 Largest Abelian subgroup         C2V     NOp   4
 Largest concise Abelian subgroup C2      NOp   2
                         Standard orientation:                         
 ---------------------------------------------------------------------
 Center     Atomic      Atomic             Coordinates (Angstroms)
 Number     Number       Type             X           Y           Z
 ---------------------------------------------------------------------
      1          8           0        0.000000    0.000000    0.119193
      2          1           0        0.000000    0.759331   -0.476772
      3          1           0        0.000000   -0.759331   -0.476772
 ---------------------------------------------------------------------
 Rotational constants (GHZ):    794.8875109    434.8508491    281.0821556
 Leave Link  202 at Fri Feb 24 13:16:28 2017, MaxMem=   134217728 cpu:         0.0
 (Enter /n/sw/g09_D.01/g09/l301.exe)
 Standard basis: 6-31G(d) (6D, 7F)
 Ernie: Thresh=  0.10000D-02 Tol=  0.10000D-05 Strict=F.
 There are    10 symmetry adapted cartesian basis functions of A1  symmetry.
 There are     1 symmetry adapted cartesian basis functions of A2  symmetry.
 There are     3 symmetry adapted cartesian basis functions of B1  symmetry.
 There are     5 symmetry adapted cartesian basis functions of B2  symmetry.
 There are    10 symmetry adapted basis functions of A1  symmetry.
 There are     1 symmetry adapted basis functions of A2  symmetry.
 There are     3 symmetry adapted basis functions of B1  symmetry.
 There are     5 symmetry adapted basis functions of B2  symmetry.
    19 basis functions,    36 primitive gaussians,    19 cartesian basis functions
     5 alpha electrons        5 beta electrons
       nuclear repulsion energy         9.1198655399 Hartrees.
 IExCor=  402 DFT=T Ex+Corr=B3LYP ExCW=0 ScaHFX=  0.200000
 ScaDFX=  0.800000  0.720000  1.000000  0.810000 ScalE2=  1.000000  1.000000
 IRadAn=      0 IRanWt=     -1 IRanGd=            0 ICorTp=0 IEmpDi=  4
 NAtoms=    3 NActive=    3 NUniq=    2 SFac= 2.25D+00 NAtFMM=   60 NAOKFM=F Big=F
 Integral buffers will be    131072 words long.
 Raffenetti 2 integral format.
 Two-electron integral symmetry is turned on.
 Leave Link  301 at Fri Feb 24 13:16:28 2017, MaxMem=   134217728 cpu:         0.3
 (Enter /n/sw/g09_D.01/g09/l302.exe)
 NPDir=0 NMtPBC=     1 NCelOv=     1 NCel=       1 NClECP=     1 NCelD=      1
         NCelK=      1 NCelE2=     1 NClLst=     1 CellRange=     0.0.
 One-electron integrals computed using PRISM.
 One-electron integral symmetry used in STVInt
 NBasis=    19 RedAO= T EigKep=  4.21D-02  NBF=    10     1     3     5
 NBsUse=    19 1.00D-06 EigRej= -1.00D+00 NBFU=    10     1     3     5
 Precomputing XC quadrature grid using
 IXCGrd= 4 IRadAn=           0 IRanWt=          -1 IRanGd=           0 AccXCQ= 0.00D+00.
 Generated NRdTot=       0 NPtTot=           0 NUsed=           0 NTot=          32
 NSgBfM=    19    19    19    19    19 MxSgAt=     3 MxSgA2=     3.
 Leave Link  302 at Fri Feb 24 13:16:28 2017, MaxMem=   134217728 cpu:         0.3
 (Enter /n/sw/g09_D.01/g09/l303.exe)
 DipDrv:  MaxL=1.
 Leave Link  303 at Fri Feb 24 13:16:29 2017, MaxMem=   134217728 cpu:         0.1
 (Enter /n/sw/g09_D.01/g09/l401.exe)
 Initial guess from the checkpoint file:  "/scratch/Gau-16918.chk"
 B after Tr=     0.000000    0.000000    0.000000
         Rot=    1.000000    0.000000    0.000000    0.000000 Ang=   0.00 deg.
 Guess basis will be translated and rotated to current coordinates.
 JPrj=2 DoOrth=T DoCkMO=T.
 Initial guess orbital symmetries:
       Occupied  (A1) (A1) (B2) (A1) (B1)
       Virtual   (A1) (A1) (A1) (A1) (A1) (A1) (A1) (A2) (B1) (B1)
                 (B2) (B2) (B2) (B2)
 The electronic state of the initial guess is 1-A1.
 Generating alternative initial guess.
 ExpMin= 1.61D-01 ExpMax= 5.48D+03 ExpMxC= 8.25D+02 IAcc=1 IRadAn=         1 AccDes= 0.00D+00
 Harris functional with IExCor=  402 and IRadAn=       1 diagonalized for initial guess.
 HarFok:  IExCor=  402 AccDes= 0.00D+00 IRadAn=         1 IDoV= 1 UseB2=F ITyADJ=14
 ICtDFT=  3500011 ScaDFX=  1.000000  1.000000  1.000000  1.000000
 FoFCou: FMM=F IPFlag=           0 FMFlag=      100000 FMFlg1=           0
         NFxFlg=           0 DoJE=T BraDBF=F KetDBF=T FulRan=T
         wScrn=  0.000000 ICntrl=     500 IOpCl=  0 I1Cent=   200000004 NGrid=           0
         NMat0=    1 NMatS0=      1 NMatT0=    0 NMatD0=    1 NMtDS0=    0 NMtDT0=    0
 Petite list used in FoFCou.
 Harris En= -76.4476447222448    
 Leave Link  401 at Fri Feb 24 13:16:29 2017, MaxMem=   134217728 cpu:         0.5
 (Enter /n/sw/g09_D.01/g09/l502.exe)
 Closed shell SCF:
 Using DIIS extrapolation, IDIIS=  1040.
 Integral symmetry usage will be decided dynamically.
 Keep R1 ints in memory in symmetry-blocked form, NReq=898557.
 IVT=       20213 IEndB=       20213 NGot=   134217728 MDV=   134191146
 LenX=   134191146 LenY=   134190264
 Requested convergence on RMS density matrix=1.00D-08 within 128 cycles.
 Requested convergence on MAX density matrix=1.00D-06.
 Requested convergence on             energy=1.00D-06.
 No special actions if energy rises.
 FoFCou: FMM=F IPFlag=           0 FMFlag=           0 FMFlg1=           0
         NFxFlg=           0 DoJE=F BraDBF=F KetDBF=F FulRan=T
         wScrn=  0.000000 ICntrl=     600 IOpCl=  0 I1Cent=           0 NGrid=           0
         NMat0=    1 NMatS0=    190 NMatT0=    0 NMatD0=    1 NMtDS0=    0 NMtDT0=    0
 Petite list used in FoFCou.
 Integral accuracy reduced to 1.0D-05 until final iterations.

 Cycle   1  Pass 0  IDiag  1:
 E= -76.4085385739414    
 DIIS: error= 3.95D-03 at cycle   1 NSaved=   1.
 NSaved= 1 IEnMin= 1 EnMin= -76.4085385739414     IErMin= 1 ErrMin= 3.95D-03
 ErrMax= 3.95D-03  0.00D+00 EMaxC= 1.00D-01 BMatC= 2.94D-04 BMatP= 2.94D-04
 IDIUse=3 WtCom= 9.61D-01 WtEn= 3.95D-02
 Coeff-Com:  0.100D+01
 Coeff-En:   0.100D+01
 Coeff:      0.100D+01
 Gap=     1.372 Goal=   None    Shift=    0.000
 GapD=    1.372 DampG=2.000 DampE=1.000 DampFc=2.0000 IDamp=-1.
 RMSDP=1.58D-03 MaxDP=1.23D-02              OVMax= 1.03D-02

 Cycle   2  Pass 0  IDiag  1:
 E= -76.4089045828842     Delta-E=       -0.000366008943 Rises=F Damp=F
 DIIS: error= 1.37D-03 at cycle   2 NSaved=   2.
 NSaved= 2 IEnMin= 2 EnMin= -76.4089045828842     IErMin= 2 ErrMin= 1.37D-03
 ErrMax= 1.37D-03  0.00D+00 EMaxC= 1.00D-01 BMatC= 3.58D-05 BMatP= 2.94D-04
 IDIUse=3 WtCom= 9.86D-01 WtEn= 1.37D-02
 Coeff-Com:  0.130D+00 0.870D+00
 Coeff-En:   0.000D+00 0.100D+01
 Coeff:      0.129D+00 0.871D+00
 Gap=     0.357 Goal=   None    Shift=    0.000
 RMSDP=4.04D-04 MaxDP=2.81D-03 DE=-3.66D-04 OVMax= 3.16D-03

 Cycle   3  Pass 0  IDiag  1:
 E= -76.4089032416156     Delta-E=        0.000001341269 Rises=F Damp=F
 DIIS: error= 1.52D-03 at cycle   3 NSaved=   3.
 NSaved= 3 IEnMin= 2 EnMin= -76.4089045828842     IErMin= 2 ErrMin= 1.37D-03
 ErrMax= 1.52D-03  0.00D+00 EMaxC= 1.00D-01 BMatC= 3.93D-05 BMatP= 3.58D-05
 IDIUse=3 WtCom= 9.85D-01 WtEn= 1.52D-02
 Coeff-Com: -0.117D-01 0.516D+00 0.496D+00
 Coeff-En:   0.000D+00 0.511D+00 0.489D+00
 Coeff:     -0.115D-01 0.516D+00 0.496D+00
 Gap=     0.355 Goal=   None    Shift=    0.000
 RMSDP=2.23D-04 MaxDP=1.56D-03 DE= 1.34D-06 OVMax= 1.56D-03

 Cycle   4  Pass 0  IDiag  1:
 E= -76.4089307975705     Delta-E=       -0.000027555955 Rises=F Damp=F
 DIIS: error= 7.30D-05 at cycle   4 NSaved=   4.
 NSaved= 4 IEnMin= 4 EnMin= -76.4089307975705     IErMin= 4 ErrMin= 7.30D-05
 ErrMax= 7.30D-05  0.00D+00 EMaxC= 1.00D-01 BMatC= 1.29D-07 BMatP= 3.58D-05
 IDIUse=1 WtCom= 1.00D+00 WtEn= 0.00D+00
 Coeff-Com: -0.881D-02 0.107D+00 0.128D+00 0.774D+00
 Coeff:     -0.881D-02 0.107D+00 0.128D+00 0.774D+00
 Gap=     0.355 Goal=   None    Shift=    0.000
 RMSDP=1.13D-05 MaxDP=6.76D-05 DE=-2.76D-05 OVMax= 7.94D-05

 Cycle   5  Pass 0  IDiag  1:
 E= -76.4089308912180     Delta-E=       -0.000000093648 Rises=F Damp=F
 DIIS: error= 3.40D-06 at cycle   5 NSaved=   5.
 NSaved= 5 IEnMin= 5 EnMin= -76.4089308912180     IErMin= 5 ErrMin= 3.40D-06
 ErrMax= 3.40D-06  0.00D+00 EMaxC= 1.00D-01 BMatC= 2.04D-10 BMatP= 1.29D-07
 IDIUse=1 WtCom= 1.00D+00 WtEn= 0.00D+00
 Coeff-Com:  0.320D-03-0.669D-02-0.664D-02 0.147D-03 0.101D+01
 Coeff:      0.320D-03-0.669D-02-0.664D-02 0.147D-03 0.101D+01
 Gap=     0.355 Goal=   None    Shift=    0.000
 RMSDP=1.41D-06 MaxDP=8.69D-06 DE=-9.36D-08 OVMax= 1.42D-05

 Initial convergence to 1.0D-05 achieved.  Increase integral accuracy.
 Cycle   6  Pass 1  IDiag  1:
 E= -76.4089317972016     Delta-E=       -0.000000905984 Rises=F Damp=F
 DIIS: error= 2.03D-06 at cycle   1 NSaved=   1.
 NSaved= 1 IEnMin= 1 EnMin= -76.4089317972016     IErMin= 1 ErrMin= 2.03D-06
 ErrMax= 2.03D-06  0.00D+00 EMaxC= 1.00D-01 BMatC= 6.40D-11 BMatP= 6.40D-11
 IDIUse=1 WtCom= 1.00D+00 WtEn= 0.00D+00
 Coeff-Com:  0.100D+01
 Coeff:      0.100D+01
 Gap=     0.355 Goal=   None    Shift=    0.000
 RMSDP=1.41D-06 MaxDP=8.69D-06 DE=-9.06D-07 OVMax= 4.07D-06

 Cycle   7  Pass 1  IDiag  1:
 E= -76.4089317972399     Delta-E=       -0.000000000038 Rises=F Damp=F
 DIIS: error= 1.36D-06 at cycle   2 NSaved=   2.
 NSaved= 2 IEnMin= 2 EnMin= -76.4089317972399     IErMin= 2 ErrMin= 1.36D-06
 ErrMax= 1.36D-06  0.00D+00 EMaxC= 1.00D-01 BMatC= 3.96D-11 BMatP= 6.40D-11
 IDIUse=1 WtCom= 1.00D+00 WtEn= 0.00D+00
 Coeff-Com:  0.418D+00 0.582D+00
 Coeff:      0.418D+00 0.582D+00
 Gap=     0.355 Goal=   None    Shift=    0.000
 RMSDP=3.00D-07 MaxDP=2.30D-06 DE=-3.83D-11 OVMax= 2.11D-06

 Cycle   8  Pass 1  IDiag  1:
 E= -76.4089317972632     Delta-E=       -0.000000000023 Rises=F Damp=F
 DIIS: error= 6.75D-07 at cycle   3 NSaved=   3.
 NSaved= 3 IEnMin= 3 EnMin= -76.4089317972632     IErMin= 3 ErrMin= 6.75D-07
 ErrMax= 6.75D-07  0.00D+00 EMaxC= 1.00D-01 BMatC= 6.40D-12 BMatP= 3.96D-11
 IDIUse=1 WtCom= 1.00D+00 WtEn= 0.00D+00
 Coeff-Com:  0.114D-01 0.283D+00 0.706D+00
 Coeff:      0.114D-01 0.283D+00 0.706D+00
 Gap=     0.355 Goal=   None    Shift=    0.000
 RMSDP=8.75D-08 MaxDP=6.79D-07 DE=-2.33D-11 OVMax= 6.37D-07

 Cycle   9  Pass 1  IDiag  1:
 E= -76.4089317972676     Delta-E=       -0.000000000004 Rises=F Damp=F
 DIIS: error= 4.73D-08 at cycle   4 NSaved=   4.
 NSaved= 4 IEnMin= 4 EnMin= -76.4089317972676     IErMin= 4 ErrMin= 4.73D-08
 ErrMax= 4.73D-08  0.00D+00 EMaxC= 1.00D-01 BMatC= 5.01D-14 BMatP= 6.40D-12
 IDIUse=1 WtCom= 1.00D+00 WtEn= 0.00D+00
 Coeff-Com: -0.807D-02 0.484D-01 0.170D+00 0.790D+00
 Coeff:     -0.807D-02 0.484D-01 0.170D+00 0.790D+00
 Gap=     0.355 Goal=   None    Shift=    0.000
 RMSDP=6.31D-09 MaxDP=3.95D-08 DE=-4.43D-12 OVMax= 4.95D-08

 SCF Done:  E(RB3LYP) =  -76.4089317973     A.U. after    9 cycles
            NFock=  9  Conv=0.63D-08     -V/T= 2.0076
 KE= 7.583125539012D+01 PE=-1.988249666825D+02 EE= 3.746491395520D+01
 Leave Link  502 at Fri Feb 24 13:16:29 2017, MaxMem=   134217728 cpu:         0.6
 (Enter /n/sw/g09_D.01/g09/l701.exe)
 Compute integral first derivatives.
 ... and contract with generalized density number  0.
 Leave Link  701 at Fri Feb 24 13:16:30 2017, MaxMem=   134217728 cpu:         0.5
 (Enter /n/sw/g09_D.01/g09/l702.exe)
 L702 exits ... SP integral derivatives will be done elsewhere.
 Leave Link  702 at Fri Feb 24 13:16:30 2017, MaxMem=   134217728 cpu:         0.1
 (Enter /n/sw/g09_D.01/g09/l703.exe)
 Compute integral first derivatives, UseDBF=F ICtDFT=           0.
 Integral derivatives from FoFJK, PRISM(SPDF).
 Calling FoFJK, ICntrl=      2127 FMM=F ISym2X=1 I1Cent= 0 IOpClX= 0 NMat=1 NMatS=1 NMatT=0.
 FoFJK:  IHMeth= 1 ICntrl=    2127 DoSepK=F KAlg= 0 I1Cent=   0 FoldK=F
 IRaf=         0 NMat=   1 IRICut=       1 DoRegI=T DoRafI=F ISym2E= 1.
 FoFCou: FMM=F IPFlag=           0 FMFlag=      100000 FMFlg1=         800
         NFxFlg=           0 DoJE=F BraDBF=F KetDBF=F FulRan=T
         wScrn=  0.000000 ICntrl=    2127 IOpCl=  0 I1Cent=           0 NGrid=           0
         NMat0=    1 NMatS0=      1 NMatT0=    0 NMatD0=    1 NMtDS0=    0 NMtDT0=    0
 Petite list used in FoFCou.
 Leave Link  703 at Fri Feb 24 13:16:30 2017, MaxMem=   134217728 cpu:         0.4
 (Enter /n/sw/g09_D.01/g09/l716.exe)
 Dipole        =-6.57675069D-17-4.44089210D-16-8.23389533D-01
 ***** Axes restored to original set *****
 -------------------------------------------------------------------
 Center     Atomic                   Forces (Hartrees/Bohr)
 Number     Number              X              Y              Z
 -------------------------------------------------------------------
      1        8          -0.002305987   -0.003262896    0.000000000
      2        1           0.003313042    0.000104877    0.000000000
      3        1          -0.001007055    0.003158020    0.000000000
 -------------------------------------------------------------------
 Cartesian Forces:  Max     0.003313042 RMS     0.002053143
 Leave Link  716 at Fri Feb 24 13:16:30 2017, MaxMem=   134217728 cpu:         0.1
 (Enter /n/sw/g09_D.01/g09/l103.exe)

 GradGradGradGradGradGradGradGradGradGradGradGradGradGradGradGradGradGrad
 Berny optimization.
 Using GEDIIS/GDIIS optimizer.
 FormGI is forming the generalized inverse of G from B-inverse, IUseBI=4.
 Internal  Forces:  Max     0.003314131 RMS     0.002706752
 Search for a local minimum.
 Step number   2 out of a maximum of   20
 All quantities printed in internal units (Hartrees-Bohrs-Radians)
 RMS Force = .27068D-02 SwitMx=.10000D-02 MixMth= 1
 Mixed Optimization -- RFO/linear search
 Update second derivatives using D2CorX and points    1    2
 DE= -9.13D-04 DEPred=-8.80D-04 R= 1.04D+00
 TightC=F SS=  1.41D+00  RLast= 1.01D-01 DXNew= 5.0454D-01 3.0421D-01
 Trust test= 1.04D+00 RLast= 1.01D-01 DXMaxT set to 3.04D-01
 The second derivative matrix:
                          R1        R2        A1
           R1           0.53995
           R2          -0.01479   0.53995
           A1           0.02989   0.02989   0.16880
 ITU=  1  0
 Use linear search instead of GDIIS.
     Eigenvalues ---    0.16385   0.53011   0.55473
 RFO step:  Lambda=-4.04975981D-05 EMin= 1.63848558D-01
 Quartic linear search produced a step of  0.03083.
 Iteration  1 RMS(Cart)=  0.00416471 RMS(Int)=  0.00000292
 Iteration  2 RMS(Cart)=  0.00000304 RMS(Int)=  0.00000000
 Iteration  3 RMS(Cart)=  0.00000000 RMS(Int)=  0.00000000
 ITry= 1 IFail=0 DXMaxC= 4.40D-03 DCOld= 1.00D+10 DXMaxT= 3.04D-01 DXLimC= 3.00D+00 Rises=F
 ClnCor:  largest displacement from symmetrization is 1.91D-14 for atom     3.
 Variable       Old X    -DE/DX   Delta X   Delta X   Delta X     New X
                                 (Linear)    (Quad)   (Total)
    R1        1.82411   0.00331   0.00031   0.00608   0.00639   1.83049
    R2        1.82411   0.00331   0.00031   0.00608   0.00639   1.83049
    A1        1.81072   0.00011  -0.00310   0.00166  -0.00144   1.80928
         Item               Value     Threshold  Converged?
 Maximum Force            0.003314     0.000450     NO 
 RMS     Force            0.002707     0.000300     NO 
 Maximum Displacement     0.004398     0.001800     NO 
 RMS     Displacement     0.004163     0.001200     NO 
 Predicted change in Energy=-2.112454D-05
 Lowest energy point so far.  Saving SCF results.
 GradGradGradGradGradGradGradGradGradGradGradGradGradGradGradGradGradGrad

 Leave Link  103 at Fri Feb 24 13:16:30 2017, MaxMem=   134217728 cpu:         0.0
 (Enter /n/sw/g09_D.01/g09/l202.exe)
                          Input orientation:                          
 ---------------------------------------------------------------------
 Center     Atomic      Atomic             Coordinates (Angstroms)
 Number     Number       Type             X           Y           Z
 ---------------------------------------------------------------------
      1          8           0       -2.759073   -1.040377    0.000000
      2          1           0       -1.791673   -0.991068    0.000000
      3          1           0       -3.035516   -0.112006    0.000000
 ---------------------------------------------------------------------
                    Distance matrix (angstroms):
                    1          2          3
     1  O    0.000000
     2  H    0.968656   0.000000
     3  H    0.968656   1.523120   0.000000
 Stoichiometry    H2O
 Framework group  C2V[C2(O),SGV(H2)]
 Deg. of freedom     2
 Full point group                 C2V     NOp   4
 RotChk:  IX=0 Diff= 2.36D-16
 Largest Abelian subgroup         C2V     NOp   4
 Largest concise Abelian subgroup C2      NOp   2
                         Standard orientation:                         
 ---------------------------------------------------------------------
 Center     Atomic      Atomic             Coordinates (Angstroms)
 Number     Number       Type             X           Y           Z
 ---------------------------------------------------------------------
      1          8           0        0.000000    0.000000    0.119720
      2          1           0        0.000000    0.761560   -0.478879
      3          1           0        0.000000   -0.761560   -0.478879
 ---------------------------------------------------------------------
 Rotational constants (GHZ):    787.9091960    432.3087586    279.1468894
 Leave Link  202 at Fri Feb 24 13:16:30 2017, MaxMem=   134217728 cpu:         0.0
 (Enter /n/sw/g09_D.01/g09/l301.exe)
 Standard basis: 6-31G(d) (6D, 7F)
 Ernie: Thresh=  0.10000D-02 Tol=  0.10000D-05 Strict=F.
 There are    10 symmetry adapted cartesian basis functions of A1  symmetry.
 There are     1 symmetry adapted cartesian basis functions of A2  symmetry.
 There are     3 symmetry adapted cartesian basis functions of B1  symmetry.
 There are     5 symmetry adapted cartesian basis functions of B2  symmetry.
 There are    10 symmetry adapted basis functions of A1  symmetry.
 There are     1 symmetry adapted basis functions of A2  symmetry.
 There are     3 symmetry adapted basis functions of B1  symmetry.
 There are     5 symmetry adapted basis functions of B2  symmetry.
    19 basis functions,    36 primitive gaussians,    19 cartesian basis functions
     5 alpha electrons        5 beta electrons
       nuclear repulsion energy         9.0882413163 Hartrees.
 IExCor=  402 DFT=T Ex+Corr=B3LYP ExCW=0 ScaHFX=  0.200000
 ScaDFX=  0.800000  0.720000  1.000000  0.810000 ScalE2=  1.000000  1.000000
 IRadAn=      0 IRanWt=     -1 IRanGd=            0 ICorTp=0 IEmpDi=  4
 NAtoms=    3 NActive=    3 NUniq=    2 SFac= 2.25D+00 NAtFMM=   60 NAOKFM=F Big=F
 Integral buffers will be    131072 words long.
 Raffenetti 2 integral format.
 Two-electron integral symmetry is turned on.
 Leave Link  301 at Fri Feb 24 13:16:31 2017, MaxMem=   134217728 cpu:         0.3
 (Enter /n/sw/g09_D.01/g09/l302.exe)
 NPDir=0 NMtPBC=     1 NCelOv=     1 NCel=       1 NClECP=     1 NCelD=      1
         NCelK=      1 NCelE2=     1 NClLst=     1 CellRange=     0.0.
 One-electron integrals computed using PRISM.
 One-electron integral symmetry used in STVInt
 NBasis=    19 RedAO= T EigKep=  4.23D-02  NBF=    10     1     3     5
 NBsUse=    19 1.00D-06 EigRej= -1.00D+00 NBFU=    10     1     3     5
 Precomputing XC quadrature grid using
 IXCGrd= 4 IRadAn=           0 IRanWt=          -1 IRanGd=           0 AccXCQ= 0.00D+00.
 Generated NRdTot=       0 NPtTot=           0 NUsed=           0 NTot=          32
 NSgBfM=    19    19    19    19    19 MxSgAt=     3 MxSgA2=     3.
 Leave Link  302 at Fri Feb 24 13:16:31 2017, MaxMem=   134217728 cpu:         0.6
 (Enter /n/sw/g09_D.01/g09/l303.exe)
 DipDrv:  MaxL=1.
 Leave Link  303 at Fri Feb 24 13:16:31 2017, MaxMem=   134217728 cpu:         0.1
 (Enter /n/sw/g09_D.01/g09/l401.exe)
 Initial guess from the checkpoint file:  "/scratch/Gau-16918.chk"
 B after Tr=     0.000000    0.000000    0.000000
         Rot=    1.000000    0.000000    0.000000    0.000000 Ang=   0.00 deg.
 Guess basis will be translated and rotated to current coordinates.
 JPrj=2 DoOrth=T DoCkMO=T.
 Initial guess orbital symmetries:
       Occupied  (A1) (A1) (B2) (A1) (B1)
       Virtual   (A1) (A1) (A1) (A1) (A1) (A1) (A1) (A2) (B1) (B1)
                 (B2) (B2) (B2) (B2)
 The electronic state of the initial guess is 1-A1.
 Leave Link  401 at Fri Feb 24 13:16:32 2017, MaxMem=   134217728 cpu:         0.5
 (Enter /n/sw/g09_D.01/g09/l502.exe)
 Closed shell SCF:
 Using DIIS extrapolation, IDIIS=  1040.
 Integral symmetry usage will be decided dynamically.
 Keep R1 ints in memory in symmetry-blocked form, NReq=898557.
 IVT=       20213 IEndB=       20213 NGot=   134217728 MDV=   134191146
 LenX=   134191146 LenY=   134190264
 Requested convergence on RMS density matrix=1.00D-08 within 128 cycles.
 Requested convergence on MAX density matrix=1.00D-06.
 Requested convergence on             energy=1.00D-06.
 No special actions if energy rises.
 FoFCou: FMM=F IPFlag=           0 FMFlag=           0 FMFlg1=           0
         NFxFlg=           0 DoJE=F BraDBF=F KetDBF=F FulRan=T
         wScrn=  0.000000 ICntrl=     600 IOpCl=  0 I1Cent=           0 NGrid=           0
         NMat0=    1 NMatS0=    190 NMatT0=    0 NMatD0=    1 NMtDS0=    0 NMtDT0=    0
 Petite list used in FoFCou.

 Cycle   1  Pass 1  IDiag  1:
 E= -76.4089460594955    
 DIIS: error= 6.56D-04 at cycle   1 NSaved=   1.
 NSaved= 1 IEnMin= 1 EnMin= -76.4089460594955     IErMin= 1 ErrMin= 6.56D-04
 ErrMax= 6.56D-04  0.00D+00 EMaxC= 1.00D-01 BMatC= 5.98D-06 BMatP= 5.98D-06
 IDIUse=3 WtCom= 9.93D-01 WtEn= 6.56D-03
 Coeff-Com:  0.100D+01
 Coeff-En:   0.100D+01
 Coeff:      0.100D+01
 Gap=     1.379 Goal=   None    Shift=    0.000
 RMSDP=2.15D-04 MaxDP=1.68D-03              OVMax= 1.42D-03

 Cycle   2  Pass 1  IDiag  1:
 E= -76.4089495786316     Delta-E=       -0.000003519136 Rises=F Damp=F
 DIIS: error= 5.93D-04 at cycle   2 NSaved=   2.
 NSaved= 2 IEnMin= 2 EnMin= -76.4089495786316     IErMin= 2 ErrMin= 5.93D-04
 ErrMax= 5.93D-04  0.00D+00 EMaxC= 1.00D-01 BMatC= 5.40D-06 BMatP= 5.98D-06
 IDIUse=3 WtCom= 9.94D-01 WtEn= 5.93D-03
 Coeff-Com:  0.484D+00 0.516D+00
 Coeff-En:   0.219D+00 0.781D+00
 Coeff:      0.482D+00 0.518D+00
 Gap=     0.354 Goal=   None    Shift=    0.000
 RMSDP=9.48D-05 MaxDP=6.42D-04 DE=-3.52D-06 OVMax= 6.67D-04

 Cycle   3  Pass 1  IDiag  1:
 E= -76.4089530690527     Delta-E=       -0.000003490421 Rises=F Damp=F
 DIIS: error= 1.42D-04 at cycle   3 NSaved=   3.
 NSaved= 3 IEnMin= 3 EnMin= -76.4089530690527     IErMin= 3 ErrMin= 1.42D-04
 ErrMax= 1.42D-04  0.00D+00 EMaxC= 1.00D-01 BMatC= 3.51D-07 BMatP= 5.40D-06
 IDIUse=3 WtCom= 9.99D-01 WtEn= 1.42D-03
 Coeff-Com:  0.126D-01 0.200D+00 0.787D+00
 Coeff-En:   0.000D+00 0.000D+00 0.100D+01
 Coeff:      0.126D-01 0.200D+00 0.787D+00
 Gap=     0.354 Goal=   None    Shift=    0.000
 RMSDP=2.38D-05 MaxDP=1.92D-04 DE=-3.49D-06 OVMax= 1.92D-04

 Cycle   4  Pass 1  IDiag  1:
 E= -76.4089533208823     Delta-E=       -0.000000251830 Rises=F Damp=F
 DIIS: error= 1.50D-05 at cycle   4 NSaved=   4.
 NSaved= 4 IEnMin= 4 EnMin= -76.4089533208823     IErMin= 4 ErrMin= 1.50D-05
 ErrMax= 1.50D-05  0.00D+00 EMaxC= 1.00D-01 BMatC= 3.56D-09 BMatP= 3.51D-07
 IDIUse=1 WtCom= 1.00D+00 WtEn= 0.00D+00
 Coeff-Com: -0.803D-02 0.270D-01 0.174D+00 0.807D+00
 Coeff:     -0.803D-02 0.270D-01 0.174D+00 0.807D+00
 Gap=     0.354 Goal=   None    Shift=    0.000
 RMSDP=2.00D-06 MaxDP=1.44D-05 DE=-2.52D-07 OVMax= 1.81D-05

 Cycle   5  Pass 1  IDiag  1:
 E= -76.4089533236057     Delta-E=       -0.000000002723 Rises=F Damp=F
 DIIS: error= 6.07D-07 at cycle   5 NSaved=   5.
 NSaved= 5 IEnMin= 5 EnMin= -76.4089533236057     IErMin= 5 ErrMin= 6.07D-07
 ErrMax= 6.07D-07  0.00D+00 EMaxC= 1.00D-01 BMatC= 5.02D-12 BMatP= 3.56D-09
 IDIUse=1 WtCom= 1.00D+00 WtEn= 0.00D+00
 Coeff-Com:  0.583D-04-0.197D-02-0.101D-01-0.717D-02 0.102D+01
 Coeff:      0.583D-04-0.197D-02-0.101D-01-0.717D-02 0.102D+01
 Gap=     0.354 Goal=   None    Shift=    0.000
 RMSDP=2.69D-07 MaxDP=2.23D-06 DE=-2.72D-09 OVMax= 2.48D-06

 Cycle   6  Pass 1  IDiag  1:
 E= -76.4089533236145     Delta-E=       -0.000000000009 Rises=F Damp=F
 DIIS: error= 1.00D-07 at cycle   6 NSaved=   6.
 NSaved= 6 IEnMin= 6 EnMin= -76.4089533236145     IErMin= 6 ErrMin= 1.00D-07
 ErrMax= 1.00D-07  0.00D+00 EMaxC= 1.00D-01 BMatC= 1.27D-13 BMatP= 5.02D-12
 IDIUse=1 WtCom= 1.00D+00 WtEn= 0.00D+00
 Coeff-Com:  0.252D-04-0.688D-04 0.145D-03-0.407D-02-0.680D-01 0.107D+01
 Coeff:      0.252D-04-0.688D-04 0.145D-03-0.407D-02-0.680D-01 0.107D+01
 Gap=     0.354 Goal=   None    Shift=    0.000
 RMSDP=1.90D-08 MaxDP=1.23D-07 DE=-8.78D-12 OVMax= 1.67D-07

 Cycle   7  Pass 1  IDiag  1:
 E= -76.4089533236146     Delta-E=        0.000000000000 Rises=F Damp=F
 DIIS: error= 2.60D-09 at cycle   7 NSaved=   7.
 NSaved= 7 IEnMin= 7 EnMin= -76.4089533236146     IErMin= 7 ErrMin= 2.60D-09
 ErrMax= 2.60D-09  0.00D+00 EMaxC= 1.00D-01 BMatC= 9.02D-17 BMatP= 1.27D-13
 IDIUse=1 WtCom= 1.00D+00 WtEn= 0.00D+00
 Coeff-Com: -0.166D-05 0.114D-04 0.125D-04 0.321D-03 0.169D-02-0.685D-01
 Coeff-Com:  0.107D+01
 Coeff:     -0.166D-05 0.114D-04 0.125D-04 0.321D-03 0.169D-02-0.685D-01
 Coeff:      0.107D+01
 Gap=     0.354 Goal=   None    Shift=    0.000
 RMSDP=8.41D-10 MaxDP=7.22D-09 DE=-1.42D-13 OVMax= 7.06D-09

 SCF Done:  E(RB3LYP) =  -76.4089533236     A.U. after    7 cycles
            NFock=  7  Conv=0.84D-09     -V/T= 2.0078
 KE= 7.581974419581D+01 PE=-1.987568672343D+02 EE= 3.743992839863D+01
 Leave Link  502 at Fri Feb 24 13:16:32 2017, MaxMem=   134217728 cpu:         0.4
 (Enter /n/sw/g09_D.01/g09/l701.exe)
 Compute integral first derivatives.
 ... and contract with generalized density number  0.
 Leave Link  701 at Fri Feb 24 13:16:32 2017, MaxMem=   134217728 cpu:         0.3
 (Enter /n/sw/g09_D.01/g09/l702.exe)
 L702 exits ... SP integral derivatives will be done elsewhere.
 Leave Link  702 at Fri Feb 24 13:16:32 2017, MaxMem=   134217728 cpu:         0.1
 (Enter /n/sw/g09_D.01/g09/l703.exe)
 Compute integral first derivatives, UseDBF=F ICtDFT=           0.
 Integral derivatives from FoFJK, PRISM(SPDF).
 Calling FoFJK, ICntrl=      2127 FMM=F ISym2X=1 I1Cent= 0 IOpClX= 0 NMat=1 NMatS=1 NMatT=0.
 FoFJK:  IHMeth= 1 ICntrl=    2127 DoSepK=F KAlg= 0 I1Cent=   0 FoldK=F
 IRaf=         0 NMat=   1 IRICut=       1 DoRegI=T DoRafI=F ISym2E= 1.
 FoFCou: FMM=F IPFlag=           0 FMFlag=      100000 FMFlg1=         800
         NFxFlg=           0 DoJE=F BraDBF=F KetDBF=F FulRan=T
         wScrn=  0.000000 ICntrl=    2127 IOpCl=  0 I1Cent=           0 NGrid=           0
         NMat0=    1 NMatS0=      1 NMatT0=    0 NMatD0=    1 NMtDS0=    0 NMtDT0=    0
 Petite list used in FoFCou.
 Leave Link  703 at Fri Feb 24 13:16:33 2017, MaxMem=   134217728 cpu:         0.6
 (Enter /n/sw/g09_D.01/g09/l716.exe)
 Dipole        =-6.59058954D-17-2.22044605D-16-8.24296603D-01
 ***** Axes restored to original set *****
 -------------------------------------------------------------------
 Center     Atomic                   Forces (Hartrees/Bohr)
 Number     Number              X              Y              Z
 -------------------------------------------------------------------
      1        8          -0.000070402   -0.000099616    0.000000000
      2        1           0.000077730    0.000019752    0.000000000
      3        1          -0.000007328    0.000079865    0.000000000
 -------------------------------------------------------------------
 Cartesian Forces:  Max     0.000099616 RMS     0.000055522
 Leave Link  716 at Fri Feb 24 13:16:33 2017, MaxMem=   134217728 cpu:         0.4
 (Enter /n/sw/g09_D.01/g09/l103.exe)

 GradGradGradGradGradGradGradGradGradGradGradGradGradGradGradGradGradGrad
 Berny optimization.
 Using GEDIIS/GDIIS optimizer.
 FormGI is forming the generalized inverse of G from B-inverse, IUseBI=4.
 Internal  Forces:  Max     0.000078635 RMS     0.000066333
 Search for a local minimum.
 Step number   3 out of a maximum of   20
 All quantities printed in internal units (Hartrees-Bohrs-Radians)
 RMS Force = .66333D-04 SwitMx=.10000D-02 MixMth= 2
 Mixed Optimization -- En-DIIS/RFO-DIIS
 Update second derivatives using D2CorX and points    1    2    3
 DE= -2.15D-05 DEPred=-2.11D-05 R= 1.02D+00
 TightC=F SS=  1.41D+00  RLast= 9.15D-03 DXNew= 5.1162D-01 2.7437D-02
 Trust test= 1.02D+00 RLast= 9.15D-03 DXMaxT set to 3.04D-01
 The second derivative matrix:
                          R1        R2        A1
           R1           0.53404
           R2          -0.02070   0.53404
           A1           0.03003   0.03003   0.16894
 ITU=  1  1  0
 Use linear search instead of GDIIS.
     Eigenvalues ---    0.16378   0.51850   0.55473
 RFO step:  Lambda= 0.00000000D+00 EMin= 1.63783946D-01
 Quartic linear search produced a step of  0.02575.
 Iteration  1 RMS(Cart)=  0.00012790 RMS(Int)=  0.00000002
 Iteration  2 RMS(Cart)=  0.00000002 RMS(Int)=  0.00000000
 ITry= 1 IFail=0 DXMaxC= 1.48D-04 DCOld= 1.00D+10 DXMaxT= 3.04D-01 DXLimC= 3.00D+00 Rises=F
 ClnCor:  largest displacement from symmetrization is 5.49D-15 for atom     3.
 Variable       Old X    -DE/DX   Delta X   Delta X   Delta X     New X
                                 (Linear)    (Quad)   (Total)
    R1        1.83049   0.00008   0.00016   0.00000   0.00017   1.83066
    R2        1.83049   0.00008   0.00016   0.00000   0.00017   1.83066
    A1        1.80928  -0.00003  -0.00004  -0.00020  -0.00023   1.80905
         Item               Value     Threshold  Converged?
 Maximum Force            0.000079     0.000450     YES
 RMS     Force            0.000066     0.000300     YES
 Maximum Displacement     0.000148     0.001800     YES
 RMS     Displacement     0.000128     0.001200     YES
 Predicted change in Energy=-1.642254D-08
 Optimization completed.
    -- Stationary point found.
                           ----------------------------
                           !   Optimized Parameters   !
                           ! (Angstroms and Degrees)  !
 --------------------------                            --------------------------
 ! Name  Definition              Value          Derivative Info.                !
 --------------------------------------------------------------------------------
 ! R1    R(1,2)                  0.9687         -DE/DX =    0.0001              !
 ! R2    R(1,3)                  0.9687         -DE/DX =    0.0001              !
 ! A1    A(2,1,3)              103.6641         -DE/DX =    0.0                 !
 --------------------------------------------------------------------------------
 Lowest energy point so far.  Saving SCF results.
 GradGradGradGradGradGradGradGradGradGradGradGradGradGradGradGradGradGrad

 Largest change from initial coordinates is atom    2       0.042 Angstoms.
 Leave Link  103 at Fri Feb 24 13:16:33 2017, MaxMem=   134217728 cpu:         0.0
 (Enter /n/sw/g09_D.01/g09/l202.exe)
                          Input orientation:                          
 ---------------------------------------------------------------------
 Center     Atomic      Atomic             Coordinates (Angstroms)
 Number     Number       Type             X           Y           Z
 ---------------------------------------------------------------------
      1          8           0       -2.759073   -1.040377    0.000000
      2          1           0       -1.791673   -0.991068    0.000000
      3          1           0       -3.035516   -0.112006    0.000000
 ---------------------------------------------------------------------
                    Distance matrix (angstroms):
                    1          2          3
     1  O    0.000000
     2  H    0.968656   0.000000
     3  H    0.968656   1.523120   0.000000
 Stoichiometry    H2O
 Framework group  C2V[C2(O),SGV(H2)]
 Deg. of freedom     2
 Full point group                 C2V     NOp   4
 RotChk:  IX=0 Diff= 7.85D-17
 Largest Abelian subgroup         C2V     NOp   4
 Largest concise Abelian subgroup C2      NOp   2
                         Standard orientation:                         
 ---------------------------------------------------------------------
 Center     Atomic      Atomic             Coordinates (Angstroms)
 Number     Number       Type             X           Y           Z
 ---------------------------------------------------------------------
      1          8           0        0.000000    0.000000    0.119720
      2          1           0        0.000000    0.761560   -0.478879
      3          1           0        0.000000   -0.761560   -0.478879
 ---------------------------------------------------------------------
 Rotational constants (GHZ):    787.9091960    432.3087586    279.1468894
 Leave Link  202 at Fri Feb 24 13:16:33 2017, MaxMem=   134217728 cpu:         0.3
 (Enter /n/sw/g09_D.01/g09/l601.exe)
 Copying SCF densities to generalized density rwf, IOpCl= 0 IROHF=0.

 **********************************************************************

            Population analysis using the SCF density.

 **********************************************************************

 Orbital symmetries:
       Occupied  (A1) (A1) (B2) (A1) (B1)
       Virtual   (A1) (B2) (B2) (A1) (B1) (A1) (B2) (A1) (A1) (A2)
                 (B1) (A1) (B2) (A1)
 The electronic state is 1-A1.
 Alpha  occ. eigenvalues --  -19.13815  -0.99790  -0.51718  -0.37220  -0.29119
 Alpha virt. eigenvalues --    0.06262   0.14815   0.77253   0.86096   0.89078
 Alpha virt. eigenvalues --    0.89509   1.06581   1.19340   1.72912   1.74635
 Alpha virt. eigenvalues --    1.77981   2.28066   2.57724   3.55196
          Condensed to atoms (all electrons):
               1          2          3
     1  O    8.289153   0.242603   0.242603
     2  H    0.242603   0.393625  -0.023406
     3  H    0.242603  -0.023406   0.393625
 Mulliken charges:
               1
     1  O   -0.774358
     2  H    0.387179
     3  H    0.387179
 Sum of Mulliken charges =   0.00000
 Mulliken charges with hydrogens summed into heavy atoms:
               1
     1  O    0.000000
 Electronic spatial extent (au):  <R**2>=             19.1855
 Charge=              0.0000 electrons
 Dipole moment (field-independent basis, Debye):
    X=              0.0000    Y=              0.0000    Z=             -2.0952  Tot=              2.0952
 Quadrupole moment (field-independent basis, Debye-Ang):
   XX=             -7.2037   YY=             -4.2861   ZZ=             -5.9901
   XY=              0.0000   XZ=              0.0000   YZ=              0.0000
 Traceless Quadrupole moment (field-independent basis, Debye-Ang):
   XX=             -1.3771   YY=              1.5405   ZZ=             -0.1634
   XY=              0.0000   XZ=              0.0000   YZ=              0.0000
 Octapole moment (field-independent basis, Debye-Ang**2):
  XXX=              0.0000  YYY=              0.0000  ZZZ=             -1.2170  XYY=              0.0000
  XXY=              0.0000  XXZ=             -0.3236  XZZ=              0.0000  YZZ=              0.0000
  YYZ=             -1.2128  XYZ=              0.0000
 Hexadecapole moment (field-independent basis, Debye-Ang**3):
 XXXX=             -5.2141 YYYY=             -6.0601 ZZZZ=             -6.2940 XXXY=              0.0000
 XXXZ=              0.0000 YYYX=              0.0000 YYYZ=              0.0000 ZZZX=              0.0000
 ZZZY=              0.0000 XXYY=             -2.1172 XXZZ=             -1.9678 YYZZ=             -1.7415
 XXYZ=              0.0000 YYXZ=              0.0000 ZZXY=              0.0000
 N-N= 9.088241316270D+00 E-N=-1.987568671890D+02  KE= 7.581974419581D+01
 Symmetry A1   KE= 6.765935002081D+01
 Symmetry A2   KE= 6.036704891122D-35
 Symmetry B1   KE= 4.599906751486D+00
 Symmetry B2   KE= 3.560487423513D+00
 No NMR shielding tensors so no spin-rotation constants.
 Leave Link  601 at Fri Feb 24 13:16:34 2017, MaxMem=   134217728 cpu:         0.6
 (Enter /n/sw/g09_D.01/g09/l9999.exe)
 1\1\GINC-RCLOGIN08\FOpt\RB3LYP\6-31G(d)\H2O1\EKWAN\24-Feb-2017\0\\#p b
 3lyp/6-31g* opt freq=noraman\\Title Card Required\\0,1\O,-2.7590726771
 ,-1.0403773666,0.\H,-1.7916730353,-0.9910675059,0.\H,-3.035515797,-0.1
 120063574,0.\\Version=EM64L-G09RevD.01\State=1-A1\HF=-76.4089533\RMSD=
 8.414e-10\RMSF=5.552e-05\Dipole=0.4757388,0.6731549,0.\Quadrupole=0.72
 3362,0.300477,-1.023839,-0.5970952,0.,0.\PG=C02V [C2(O1),SGV(H2)]\\@


 HE THAT RISETH LATE MUST TROT ALL DAY.

                  -- BENJAMIN FRANKLIN
 Leave Link 9999 at Fri Feb 24 13:16:34 2017, MaxMem=   134217728 cpu:         0.2
 Job cpu time:       0 days  0 hours  0 minutes 15.8 seconds.
 File lengths (MBytes):  RWF=      5 Int=      0 D2E=      0 Chk=      1 Scr=      1
 Normal termination of Gaussian 09 at Fri Feb 24 13:16:34 2017.
 (Enter /n/sw/g09_D.01/g09/l1.exe)
 Link1:  Proceeding to internal job step number  2.
 --------------------------------------------------------------------
 #P Geom=AllCheck Guess=TCheck SCRF=Check GenChk RB3LYP/6-31G(d) Freq
 --------------------------------------------------------------------
 1/10=4,29=7,30=1,38=1,40=1/1,3;
 2/12=2,40=1/2;
 3/5=1,6=6,7=1,11=2,14=-4,16=1,25=1,30=1,70=2,71=2,74=-5,116=1,140=1/1,2,3;
 4/5=101/1;
 5/5=2,98=1/2;
 8/6=4,10=90,11=11/1;
 11/6=1,8=1,9=11,15=111,16=1/1,2,10;
 10/6=1/2;
 6/7=2,8=2,9=2,10=2,18=1,28=1/1;
 7/8=1,10=1,25=1/1,2,3,16;
 1/10=4,30=1/3;
 99//99;
 Leave Link    1 at Fri Feb 24 13:16:34 2017, MaxMem=   134217728 cpu:         0.1
 (Enter /n/sw/g09_D.01/g09/l101.exe)
 Structure from the checkpoint file:  "/scratch/Gau-16918.chk"
 -------------------
 Title Card Required
 -------------------
 Charge =  0 Multiplicity = 1
 Redundant internal coordinates found in file.
 O,0,-2.7590726771,-1.0403773666,0.
 H,0,-1.7916730353,-0.9910675059,0.
 H,0,-3.035515797,-0.1120063574,0.
 Recover connectivity data from disk.
 NAtoms=      3 NQM=        3 NQMF=       0 NMMI=      0 NMMIF=      0
                NMic=       0 NMicF=      0.
                    Isotopes and Nuclear Properties:
 (Nuclear quadrupole moments (NQMom) in fm**2, nuclear magnetic moments (NMagM)
  in nuclear magnetons)

  Atom         1           2           3
 IAtWgt=          16           1           1
 AtmWgt=  15.9949146   1.0078250   1.0078250
 NucSpn=           0           1           1
 AtZEff=  -5.6000000  -1.0000000  -1.0000000
 NQMom=    0.0000000   0.0000000   0.0000000
 NMagM=    0.0000000   2.7928460   2.7928460
 AtZNuc=   8.0000000   1.0000000   1.0000000
 Leave Link  101 at Fri Feb 24 13:16:34 2017, MaxMem=   134217728 cpu:         0.7
 (Enter /n/sw/g09_D.01/g09/l103.exe)

 GradGradGradGradGradGradGradGradGradGradGradGradGradGradGradGradGradGrad
 Berny optimization.
 Initialization pass.
                           ----------------------------
                           !    Initial Parameters    !
                           ! (Angstroms and Degrees)  !
 --------------------------                            --------------------------
 ! Name  Definition              Value          Derivative Info.                !
 --------------------------------------------------------------------------------
 ! R1    R(1,2)                  0.9687         calculate D2E/DX2 analytically  !
 ! R2    R(1,3)                  0.9687         calculate D2E/DX2 analytically  !
 ! A1    A(2,1,3)              103.6641         calculate D2E/DX2 analytically  !
 --------------------------------------------------------------------------------
 Trust Radius=3.00D-01 FncErr=1.00D-07 GrdErr=1.00D-07
 Number of steps in this run=      2 maximum allowed number of steps=      2.
 GradGradGradGradGradGradGradGradGradGradGradGradGradGradGradGradGradGrad

 Leave Link  103 at Fri Feb 24 13:16:34 2017, MaxMem=   134217728 cpu:         0.0
 (Enter /n/sw/g09_D.01/g09/l202.exe)
                          Input orientation:                          
 ---------------------------------------------------------------------
 Center     Atomic      Atomic             Coordinates (Angstroms)
 Number     Number       Type             X           Y           Z
 ---------------------------------------------------------------------
      1          8           0       -2.759073   -1.040377    0.000000
      2          1           0       -1.791673   -0.991068    0.000000
      3          1           0       -3.035516   -0.112006    0.000000
 ---------------------------------------------------------------------
                    Distance matrix (angstroms):
                    1          2          3
     1  O    0.000000
     2  H    0.968656   0.000000
     3  H    0.968656   1.523120   0.000000
 Stoichiometry    H2O
 Framework group  C2V[C2(O),SGV(H2)]
 Deg. of freedom     2
 Full point group                 C2V     NOp   4
 RotChk:  IX=0 Diff= 4.23D-16
 Largest Abelian subgroup         C2V     NOp   4
 Largest concise Abelian subgroup C2      NOp   2
                         Standard orientation:                         
 ---------------------------------------------------------------------
 Center     Atomic      Atomic             Coordinates (Angstroms)
 Number     Number       Type             X           Y           Z
 ---------------------------------------------------------------------
      1          8           0        0.000000    0.000000    0.119720
      2          1           0        0.000000    0.761560   -0.478879
      3          1           0        0.000000   -0.761560   -0.478879
 ---------------------------------------------------------------------
 Rotational constants (GHZ):    787.9091960    432.3087586    279.1468894
 Leave Link  202 at Fri Feb 24 13:16:35 2017, MaxMem=   134217728 cpu:         0.4
 (Enter /n/sw/g09_D.01/g09/l301.exe)
 Standard basis: 6-31G(d) (6D, 7F)
 Ernie: Thresh=  0.10000D-02 Tol=  0.10000D-05 Strict=F.
 There are    10 symmetry adapted cartesian basis functions of A1  symmetry.
 There are     1 symmetry adapted cartesian basis functions of A2  symmetry.
 There are     3 symmetry adapted cartesian basis functions of B1  symmetry.
 There are     5 symmetry adapted cartesian basis functions of B2  symmetry.
 There are    10 symmetry adapted basis functions of A1  symmetry.
 There are     1 symmetry adapted basis functions of A2  symmetry.
 There are     3 symmetry adapted basis functions of B1  symmetry.
 There are     5 symmetry adapted basis functions of B2  symmetry.
    19 basis functions,    36 primitive gaussians,    19 cartesian basis functions
     5 alpha electrons        5 beta electrons
       nuclear repulsion energy         9.0882413163 Hartrees.
 IExCor=  402 DFT=T Ex+Corr=B3LYP ExCW=0 ScaHFX=  0.200000
 ScaDFX=  0.800000  0.720000  1.000000  0.810000 ScalE2=  1.000000  1.000000
 IRadAn=      0 IRanWt=     -1 IRanGd=            0 ICorTp=0 IEmpDi=  4
 NAtoms=    3 NActive=    3 NUniq=    2 SFac= 2.25D+00 NAtFMM=   60 NAOKFM=F Big=F
 Integral buffers will be    131072 words long.
 Raffenetti 2 integral format.
 Two-electron integral symmetry is turned on.
 Leave Link  301 at Fri Feb 24 13:16:35 2017, MaxMem=   134217728 cpu:         0.4
 (Enter /n/sw/g09_D.01/g09/l302.exe)
 NPDir=0 NMtPBC=     1 NCelOv=     1 NCel=       1 NClECP=     1 NCelD=      1
         NCelK=      1 NCelE2=     1 NClLst=     1 CellRange=     0.0.
 One-electron integrals computed using PRISM.
 One-electron integral symmetry used in STVInt
 NBasis=    19 RedAO= T EigKep=  4.23D-02  NBF=    10     1     3     5
 NBsUse=    19 1.00D-06 EigRej= -1.00D+00 NBFU=    10     1     3     5
 Precomputing XC quadrature grid using
 IXCGrd= 4 IRadAn=           0 IRanWt=          -1 IRanGd=           0 AccXCQ= 0.00D+00.
 Generated NRdTot=       0 NPtTot=           0 NUsed=           0 NTot=          32
 NSgBfM=    19    19    19    19    19 MxSgAt=     3 MxSgA2=     3.
 Leave Link  302 at Fri Feb 24 13:16:35 2017, MaxMem=   134217728 cpu:         0.6
 (Enter /n/sw/g09_D.01/g09/l303.exe)
 DipDrv:  MaxL=1.
 Leave Link  303 at Fri Feb 24 13:16:36 2017, MaxMem=   134217728 cpu:         0.4
 (Enter /n/sw/g09_D.01/g09/l401.exe)
 Initial guess from the checkpoint file:  "/scratch/Gau-16918.chk"
 B after Tr=     0.000000    0.000000    0.000000
         Rot=    1.000000    0.000000    0.000000    0.000000 Ang=   0.00 deg.
 Guess basis will be translated and rotated to current coordinates.
 JPrj=2 DoOrth=T DoCkMO=T.
 Initial guess orbital symmetries:
       Occupied  (A1) (A1) (B2) (A1) (B1)
       Virtual   (A1) (B2) (B2) (A1) (B1) (A1) (B2) (A1) (A1) (A2)
                 (B1) (A1) (B2) (A1)
 The electronic state of the initial guess is 1-A1.
 Leave Link  401 at Fri Feb 24 13:16:36 2017, MaxMem=   134217728 cpu:         0.5
 (Enter /n/sw/g09_D.01/g09/l502.exe)
 Closed shell SCF:
 Using DIIS extrapolation, IDIIS=  1040.
 Integral symmetry usage will be decided dynamically.
 Keep R1 ints in memory in symmetry-blocked form, NReq=898557.
 IVT=       20213 IEndB=       20213 NGot=   134217728 MDV=   134191146
 LenX=   134191146 LenY=   134190264
 Requested convergence on RMS density matrix=1.00D-08 within 128 cycles.
 Requested convergence on MAX density matrix=1.00D-06.
 Requested convergence on             energy=1.00D-06.
 No special actions if energy rises.
 FoFCou: FMM=F IPFlag=           0 FMFlag=           0 FMFlg1=           0
         NFxFlg=           0 DoJE=F BraDBF=F KetDBF=F FulRan=T
         wScrn=  0.000000 ICntrl=     600 IOpCl=  0 I1Cent=           0 NGrid=           0
         NMat0=    1 NMatS0=    190 NMatT0=    0 NMatD0=    1 NMtDS0=    0 NMtDT0=    0
 Petite list used in FoFCou.

 Cycle   1  Pass 1  IDiag  1:
 E= -76.4089533236146    
 DIIS: error= 5.62D-11 at cycle   1 NSaved=   1.
 NSaved= 1 IEnMin= 1 EnMin= -76.4089533236146     IErMin= 1 ErrMin= 5.62D-11
 ErrMax= 5.62D-11  0.00D+00 EMaxC= 1.00D-01 BMatC= 6.03D-20 BMatP= 6.03D-20
 IDIUse=1 WtCom= 1.00D+00 WtEn= 0.00D+00
 Coeff-Com:  0.100D+01
 Coeff:      0.100D+01
 Gap=     0.354 Goal=   None    Shift=    0.000
 Skip diagonalization as Alpha Fock matrix is already diagonal.
 RMSDP=0.00D+00 MaxDP=0.00D+00              OVMax= 0.00D+00

 SCF Done:  E(RB3LYP) =  -76.4089533236     A.U. after    1 cycles
            NFock=  1  Conv=0.00D+00     -V/T= 2.0078
 KE= 7.581974419581D+01 PE=-1.987568671890D+02 EE= 3.743992835334D+01
 Leave Link  502 at Fri Feb 24 13:16:36 2017, MaxMem=   134217728 cpu:         0.6
 (Enter /n/sw/g09_D.01/g09/l801.exe)
 DoSCS=F DFT=T ScalE2(SS,OS)=  1.000000  1.000000
 Range of M.O.s used for correlation:     1    19
 NBasis=    19 NAE=     5 NBE=     5 NFC=     0 NFV=     0
 NROrb=     19 NOA=     5 NOB=     5 NVA=    14 NVB=    14
 Leave Link  801 at Fri Feb 24 13:16:36 2017, MaxMem=   134217728 cpu:         0.4
 (Enter /n/sw/g09_D.01/g09/l1101.exe)
 Using compressed storage, NAtomX=     3.
 Will process      4 centers per pass.
 Leave Link 1101 at Fri Feb 24 13:16:37 2017, MaxMem=   134217728 cpu:         0.6
 (Enter /n/sw/g09_D.01/g09/l1102.exe)
 Symmetrizing basis deriv contribution to polar:
 IMax=3 JMax=2 DiffMx= 0.00D+00
 Leave Link 1102 at Fri Feb 24 13:16:37 2017, MaxMem=   134217728 cpu:         0.2
 (Enter /n/sw/g09_D.01/g09/l1110.exe)
 Forming Gx(P) for the SCF density, NAtomX=     3.
 Integral derivatives from FoFJK, PRISM(SPDF).
 Do as many integral derivatives as possible in FoFJK.
 G2DrvN: MDV=     134217600.
 G2DrvN: will do     4 centers at a time, making    1 passes.
 Calling FoFCou, ICntrl=  3107 FMM=F I1Cent=   0 AccDes= 0.00D+00.
 FoFJK:  IHMeth= 1 ICntrl=    3107 DoSepK=F KAlg= 0 I1Cent=   0 FoldK=F
 IRaf=         0 NMat=   1 IRICut=       1 DoRegI=T DoRafI=F ISym2E= 1.
 FoFCou: FMM=F IPFlag=           0 FMFlag=      100000 FMFlg1=           0
         NFxFlg=           0 DoJE=F BraDBF=F KetDBF=F FulRan=T
         wScrn=  0.000000 ICntrl=    3107 IOpCl=  0 I1Cent=           0 NGrid=           0
         NMat0=    1 NMatS0=      1 NMatT0=    0 NMatD0=    1 NMtDS0=    0 NMtDT0=    0
 Petite list used in FoFCou.
 End of G2Drv F.D. properties file   721 does not exist.
 End of G2Drv F.D. properties file   722 does not exist.
 End of G2Drv F.D. properties file   788 does not exist.
 Leave Link 1110 at Fri Feb 24 13:16:38 2017, MaxMem=   134217728 cpu:         0.6
 (Enter /n/sw/g09_D.01/g09/l1002.exe)
 Minotr:  Closed shell wavefunction.
          IDoAtm=111
          Direct CPHF calculation.
          Differentiating once with respect to electric field.
                with respect to dipole field.
          Differentiating once with respect to nuclear coordinates.
          Using symmetry in CPHF.
          Requested convergence is 1.0D-08 RMS, and 1.0D-07 maximum.
          Secondary convergence is 1.0D-12 RMS, and 1.0D-12 maximum.
          NewPWx=T KeepS1=F KeepF1=F KeepIn=T MapXYZ=F SortEE=F KeepMc=T.
          MDV=     134217675 using IRadAn=       2.
 Generate precomputed XC quadrature information.
 Keep R1 ints in memory in symmetry-blocked form, NReq=877757.
 FoFCou: FMM=F IPFlag=           0 FMFlag=           0 FMFlg1=           0
         NFxFlg=           0 DoJE=F BraDBF=F KetDBF=F FulRan=T
         wScrn=  0.000000 ICntrl=     600 IOpCl=  0 I1Cent=           0 NGrid=           0
         NMat0=    1 NMatS0=    190 NMatT0=    0 NMatD0=    1 NMtDS0=    0 NMtDT0=    0
 Petite list used in FoFCou.
          Solving linear equations simultaneously, MaxMat=       0.
          There are     9 degrees of freedom in the 1st order CPHF.  IDoFFX=4 NUNeed=     9.
      9 vectors produced by pass  0 Test12= 7.78D-16 1.11D-08 XBig12= 3.32D+00 1.28D+00.
 AX will form     9 AO Fock derivatives at one time.
      9 vectors produced by pass  1 Test12= 7.78D-16 1.11D-08 XBig12= 3.38D-01 2.90D-01.
      9 vectors produced by pass  2 Test12= 7.78D-16 1.11D-08 XBig12= 2.94D-03 2.76D-02.
      9 vectors produced by pass  3 Test12= 7.78D-16 1.11D-08 XBig12= 2.73D-06 8.51D-04.
      7 vectors produced by pass  4 Test12= 7.78D-16 1.11D-08 XBig12= 1.06D-09 1.65D-05.
      2 vectors produced by pass  5 Test12= 7.78D-16 1.11D-08 XBig12= 2.79D-13 1.98D-07.
 InvSVY:  IOpt=1 It=  1 EMax= 2.22D-16
 Solved reduced A of dimension    45 with     9 vectors.
 FullF1:  Do perturbations    1 to     9.
 Isotropic polarizability for W=    0.000000        5.22 Bohr**3.
 End of Minotr F.D. properties file   721 does not exist.
 End of Minotr F.D. properties file   722 does not exist.
 End of Minotr F.D. properties file   788 does not exist.
 Leave Link 1002 at Fri Feb 24 13:16:39 2017, MaxMem=   134217728 cpu:         0.9
 (Enter /n/sw/g09_D.01/g09/l601.exe)
 Copying SCF densities to generalized density rwf, IOpCl= 0 IROHF=0.

 **********************************************************************

            Population analysis using the SCF density.

 **********************************************************************

 Orbital symmetries:
       Occupied  (A1) (A1) (B2) (A1) (B1)
       Virtual   (A1) (B2) (B2) (A1) (B1) (A1) (B2) (A1) (A1) (A2)
                 (B1) (A1) (B2) (A1)
 The electronic state is 1-A1.
 Alpha  occ. eigenvalues --  -19.13815  -0.99790  -0.51718  -0.37220  -0.29119
 Alpha virt. eigenvalues --    0.06262   0.14815   0.77253   0.86096   0.89078
 Alpha virt. eigenvalues --    0.89509   1.06581   1.19340   1.72912   1.74635
 Alpha virt. eigenvalues --    1.77981   2.28066   2.57724   3.55196
          Condensed to atoms (all electrons):
               1          2          3
     1  O    8.289153   0.242603   0.242603
     2  H    0.242603   0.393625  -0.023406
     3  H    0.242603  -0.023406   0.393625
 Mulliken charges:
               1
     1  O   -0.774358
     2  H    0.387179
     3  H    0.387179
 Sum of Mulliken charges =   0.00000
 Mulliken charges with hydrogens summed into heavy atoms:
               1
     1  O    0.000000
 APT charges:
               1
     1  O   -0.491305
     2  H    0.245652
     3  H    0.245652
 Sum of APT charges =   0.00000
 APT charges with hydrogens summed into heavy atoms:
               1
     1  O    0.000000
 Electronic spatial extent (au):  <R**2>=             19.1855
 Charge=              0.0000 electrons
 Dipole moment (field-independent basis, Debye):
    X=              0.0000    Y=              0.0000    Z=             -2.0952  Tot=              2.0952
 Quadrupole moment (field-independent basis, Debye-Ang):
   XX=             -7.2037   YY=             -4.2861   ZZ=             -5.9901
   XY=              0.0000   XZ=              0.0000   YZ=              0.0000
 Traceless Quadrupole moment (field-independent basis, Debye-Ang):
   XX=             -1.3771   YY=              1.5405   ZZ=             -0.1634
   XY=              0.0000   XZ=              0.0000   YZ=              0.0000
 Octapole moment (field-independent basis, Debye-Ang**2):
  XXX=              0.0000  YYY=              0.0000  ZZZ=             -1.2170  XYY=              0.0000
  XXY=              0.0000  XXZ=             -0.3236  XZZ=              0.0000  YZZ=              0.0000
  YYZ=             -1.2128  XYZ=              0.0000
 Hexadecapole moment (field-independent basis, Debye-Ang**3):
 XXXX=             -5.2141 YYYY=             -6.0601 ZZZZ=             -6.2940 XXXY=              0.0000
 XXXZ=              0.0000 YYYX=              0.0000 YYYZ=              0.0000 ZZZX=              0.0000
 ZZZY=              0.0000 XXYY=             -2.1172 XXZZ=             -1.9678 YYZZ=             -1.7415
 XXYZ=              0.0000 YYXZ=              0.0000 ZZXY=              0.0000
 N-N= 9.088241316270D+00 E-N=-1.987568671890D+02  KE= 7.581974419581D+01
 Symmetry A1   KE= 6.765935002081D+01
 Symmetry A2   KE= 6.036704891123D-35
 Symmetry B1   KE= 4.599906751486D+00
 Symmetry B2   KE= 3.560487423513D+00
  Exact polarizability:   2.830   0.000   7.394   0.000   0.000   5.422
 Approx polarizability:   3.082   0.000   8.970   0.000   0.000   6.753
 No NMR shielding tensors so no spin-rotation constants.
 Leave Link  601 at Fri Feb 24 13:16:39 2017, MaxMem=   134217728 cpu:         0.3
 (Enter /n/sw/g09_D.01/g09/l701.exe)
 Compute integral second derivatives.
 ... and contract with generalized density number  0.
 Leave Link  701 at Fri Feb 24 13:16:40 2017, MaxMem=   134217728 cpu:         0.7
 (Enter /n/sw/g09_D.01/g09/l702.exe)
 L702 exits ... SP integral derivatives will be done elsewhere.
 Leave Link  702 at Fri Feb 24 13:16:40 2017, MaxMem=   134217728 cpu:         0.3
 (Enter /n/sw/g09_D.01/g09/l703.exe)
 Compute integral second derivatives, UseDBF=F ICtDFT=           0.
 Integral derivatives from FoFJK, PRISM(SPDF).
 Calling FoFJK, ICntrl=    100127 FMM=F ISym2X=1 I1Cent= 0 IOpClX= 0 NMat=1 NMatS=1 NMatT=0.
 FoFJK:  IHMeth= 1 ICntrl=  100127 DoSepK=F KAlg= 0 I1Cent=   0 FoldK=F
 IRaf=         0 NMat=   1 IRICut=       1 DoRegI=T DoRafI=F ISym2E= 1.
 FoFCou: FMM=F IPFlag=           0 FMFlag=      100000 FMFlg1=         800
         NFxFlg=           0 DoJE=F BraDBF=F KetDBF=F FulRan=T
         wScrn=  0.000000 ICntrl=  100127 IOpCl=  0 I1Cent=           0 NGrid=           0
         NMat0=    1 NMatS0=      1 NMatT0=    0 NMatD0=    1 NMtDS0=    0 NMtDT0=    0
 Petite list used in FoFCou.
 Leave Link  703 at Fri Feb 24 13:16:42 2017, MaxMem=   134217728 cpu:         1.3
 (Enter /n/sw/g09_D.01/g09/l716.exe)
 Dipole        =-6.59058954D-17 1.80411242D-16-8.24296603D-01
 Polarizability= 2.83010267D+00 1.74366167D-11 7.39367384D+00
                 2.17155868D-10-1.04158500D-09 5.42195032D+00
 Full mass-weighted force constant matrix:
 Low frequencies ---  -59.3286  -57.8518  -33.6598    0.0020    0.0023    0.0026
 Low frequencies --- 1712.7968 3728.4714 3850.6127
 Diagonal vibrational polarizability:
        0.0000000       0.0352531       0.6988450
 Harmonic frequencies (cm**-1), IR intensities (KM/Mole), Raman scattering
 activities (A**4/AMU), depolarization ratios for plane and unpolarized
 incident light, reduced masses (AMU), force constants (mDyne/A),
 and normal coordinates:
                      1                      2                      3
                     A1                     A1                     B2
 Frequencies --   1712.7968              3728.4714              3850.6126
 Red. masses --      1.0825                 1.0453                 1.0810
 Frc consts  --      1.8710                 8.5619                 9.4438
 IR Inten    --     75.8244                 1.7004                19.4234
  Atom  AN      X      Y      Z        X      Y      Z        X      Y      Z
     1   8     0.00   0.00   0.07     0.00   0.00   0.05     0.00   0.07   0.00
     2   1     0.00  -0.43  -0.56     0.00   0.58  -0.40     0.00  -0.55   0.44
     3   1     0.00   0.43  -0.56     0.00  -0.58  -0.40     0.00  -0.55  -0.44

 -------------------
 - Thermochemistry -
 -------------------
 Temperature   298.150 Kelvin.  Pressure   1.00000 Atm.
 Atom     1 has atomic number  8 and mass  15.99491
 Atom     2 has atomic number  1 and mass   1.00783
 Atom     3 has atomic number  1 and mass   1.00783
 Molecular mass:    18.01056 amu.
 Principal axes and moments of inertia in atomic units:
                           1         2         3
     Eigenvalues --     2.29054   4.17466   6.46520
           X            0.00000   0.00000   1.00000
           Y            1.00000   0.00000   0.00000
           Z            0.00000   1.00000   0.00000
 This molecule is an asymmetric top.
 Rotational symmetry number  2.
 Rotational temperatures (Kelvin)     37.81363    20.74752    13.39692
 Rotational constants (GHZ):         787.90920   432.30876   279.14689
 Zero-point vibrational energy      55577.8 (Joules/Mol)
                                   13.28341 (Kcal/Mol)
 Vibrational temperatures:   2464.33  5364.43  5540.17
          (Kelvin)
 
 Zero-point correction=                           0.021168 (Hartree/Particle)
 Thermal correction to Energy=                    0.024003
 Thermal correction to Enthalpy=                  0.024947
 Thermal correction to Gibbs Free Energy=         0.003501
 Sum of electronic and zero-point Energies=            -76.387785
 Sum of electronic and thermal Energies=               -76.384950
 Sum of electronic and thermal Enthalpies=             -76.384006
 Sum of electronic and thermal Free Energies=          -76.405452
 
                     E (Thermal)             CV                S
                      KCal/Mol        Cal/Mol-Kelvin    Cal/Mol-Kelvin
 Total                   15.062              5.997             45.136
 Electronic               0.000              0.000              0.000
 Translational            0.889              2.981             34.608
 Rotational               0.889              2.981             10.523
 Vibrational             13.285              0.035              0.005
                       Q            Log10(Q)             Ln(Q)
 Total Bot       0.245160D-01         -1.610551         -3.708430
 Total V=0       0.133735D+09          8.126245         18.711371
 Vib (Bot)       0.183365D-09         -9.736684        -22.419544
 Vib (V=0)       0.100026D+01          0.000112          0.000257
 Electronic      0.100000D+01          0.000000          0.000000
 Translational   0.300432D+07          6.477746         14.915562
 Rotational      0.445028D+02          1.648387          3.795552
 
                                                         Title Card Required
                                                             IR Spectrum
 
     3    3                                                                 1                                                        
     8    7                                                                 7                                                        
     5    2                                                                 1                                                        
     1    8                                                                 3                                                        
 
     X    X                                                                 X                                                        
     X                                                                      X                                                        
     X                                                                      X                                                        
     X                                                                      X                                                        
     X                                                                      X                                                        
                                                                            X                                                        
                                                                            X                                                        
                                                                            X                                                        
                                                                            X                                                        
                                                                            X                                                        
                                                                            X                                                        
                                                                            X                                                        
                                                                            X                                                        
                                                                            X                                                        
                                                                            X                                                        
                                                                            X                                                        
                                                                            X                                                        
                                                                            X                                                        
                                                                            X                                                        
                                                                            X                                                        
 
 ***** Axes restored to original set *****
 -------------------------------------------------------------------
 Center     Atomic                   Forces (Hartrees/Bohr)
 Number     Number              X              Y              Z
 -------------------------------------------------------------------
      1        8          -0.000070402   -0.000099616    0.000000000
      2        1           0.000077730    0.000019752    0.000000000
      3        1          -0.000007328    0.000079865    0.000000000
 -------------------------------------------------------------------
 Cartesian Forces:  Max     0.000099616 RMS     0.000055522
 Force constants in Cartesian coordinates: 
                1             2             3             4             5 
      1  0.583342D+00
      2 -0.920788D-01  0.518128D+00
      3  0.000000D+00  0.000000D+00 -0.238446D-03
      4 -0.499984D+00  0.621847D-02  0.000000D+00  0.516575D+00
      5 -0.616749D-01 -0.507508D-01  0.000000D+00  0.676963D-02  0.524981D-01
      6  0.000000D+00  0.000000D+00  0.119223D-03  0.000000D+00  0.000000D+00
      7 -0.833576D-01  0.858603D-01  0.000000D+00 -0.165909D-01  0.549053D-01
      8  0.153754D+00 -0.467377D+00  0.000000D+00 -0.129881D-01 -0.174729D-02
      9  0.000000D+00  0.000000D+00  0.119223D-03  0.000000D+00  0.000000D+00
                6             7             8             9 
      6 -0.123435D-03
      7  0.000000D+00  0.999486D-01
      8  0.000000D+00 -0.140766D+00  0.469125D+00
      9  0.421191D-05  0.000000D+00  0.000000D+00 -0.123435D-03
 FormGI is forming the generalized inverse of G from B-inverse, IUseBI=4.
 Force constants in internal coordinates: 
                1             2             3 
      1  0.516034D+00
      2 -0.855949D-02  0.516034D+00
      3  0.309320D-01  0.309320D-01  0.177770D+00
 Leave Link  716 at Fri Feb 24 13:16:42 2017, MaxMem=   134217728 cpu:         0.5
 (Enter /n/sw/g09_D.01/g09/l103.exe)

 GradGradGradGradGradGradGradGradGradGradGradGradGradGradGradGradGradGrad
 Berny optimization.
 Red2BG is reusing G-inverse.
 Internal  Forces:  Max     0.000078635 RMS     0.000066333
 Search for a local minimum.
 Step number   1 out of a maximum of    2
 All quantities printed in internal units (Hartrees-Bohrs-Radians)
 Second derivative matrix not updated -- analytic derivatives used.
 The second derivative matrix:
                          R1        R2        A1
           R1           0.51603
           R2          -0.00856   0.51603
           A1           0.03093   0.03093   0.17777
 ITU=  0
     Eigenvalues ---    0.17207   0.51318   0.52459
 Angle between quadratic step and forces=  28.30 degrees.
 Linear search not attempted -- first point.
 Iteration  1 RMS(Cart)=  0.00012417 RMS(Int)=  0.00000001
 Iteration  2 RMS(Cart)=  0.00000002 RMS(Int)=  0.00000000
 ITry= 1 IFail=0 DXMaxC= 1.43D-04 DCOld= 1.00D+10 DXMaxT= 3.00D-01 DXLimC= 3.00D+00 Rises=F
 ClnCor:  largest displacement from symmetrization is 5.57D-15 for atom     3.
 Variable       Old X    -DE/DX   Delta X   Delta X   Delta X     New X
                                 (Linear)    (Quad)   (Total)
    R1        1.83049   0.00008   0.00000   0.00017   0.00017   1.83066
    R2        1.83049   0.00008   0.00000   0.00017   0.00017   1.83066
    A1        1.80928  -0.00003   0.00000  -0.00022  -0.00022   1.80906
         Item               Value     Threshold  Converged?
 Maximum Force            0.000079     0.000450     YES
 RMS     Force            0.000066     0.000300     YES
 Maximum Displacement     0.000143     0.001800     YES
 RMS     Displacement     0.000124     0.001200     YES
 Predicted change in Energy=-1.643329D-08
 Optimization completed.
    -- Stationary point found.
                           ----------------------------
                           !   Optimized Parameters   !
                           ! (Angstroms and Degrees)  !
 --------------------------                            --------------------------
 ! Name  Definition              Value          Derivative Info.                !
 --------------------------------------------------------------------------------
 ! R1    R(1,2)                  0.9687         -DE/DX =    0.0001              !
 ! R2    R(1,3)                  0.9687         -DE/DX =    0.0001              !
 ! A1    A(2,1,3)              103.6641         -DE/DX =    0.0                 !
 --------------------------------------------------------------------------------
 GradGradGradGradGradGradGradGradGradGradGradGradGradGradGradGradGradGrad

 Leave Link  103 at Fri Feb 24 13:16:42 2017, MaxMem=   134217728 cpu:         0.0
 (Enter /n/sw/g09_D.01/g09/l9999.exe)
 1\1\GINC-RCLOGIN08\Freq\RB3LYP\6-31G(d)\H2O1\EKWAN\24-Feb-2017\0\\#P G
 eom=AllCheck Guess=TCheck SCRF=Check GenChk RB3LYP/6-31G(d) Freq\\Titl
 e Card Required\\0,1\O,-2.7590726771,-1.0403773666,0.\H,-1.7916730353,
 -0.9910675059,0.\H,-3.035515797,-0.1120063574,0.\\Version=EM64L-G09Rev
 D.01\State=1-A1\HF=-76.4089533\RMSD=0.000e+00\RMSF=5.552e-05\ZeroPoint
 =0.0211685\Thermal=0.024003\Dipole=0.4757388,0.6731549,0.\DipoleDeriv=
 -0.3850586,0.0351662,0.,0.0351662,-0.3601526,0.,0.,0.,-0.7287037,0.090
 2269,-0.037065,0.,-0.0705556,0.2823788,0.,0.,0.,0.3643518,0.2948318,0.
 0018988,0.,0.0353894,0.0777739,0.,0.,0.,0.3643518\Polar=6.7368995,-0.9
 293142,6.0787247,0.,0.,2.8301027\PG=C02V [C2(O1),SGV(H2)]\NImag=0\\0.5
 8334174,-0.09207875,0.51812815,0.,0.,-0.00023845,-0.49998410,0.0062184
 7,0.,0.51657503,-0.06167489,-0.05075084,0.,0.00676963,0.05249813,0.,0.
 ,0.00011922,0.,0.,-0.00012343,-0.08335764,0.08586028,0.,-0.01659093,0.
 05490526,0.,0.09994857,0.15375364,-0.46737731,0.,-0.01298810,-0.001747
 29,0.,-0.14076554,0.46912459,0.,0.,0.00011922,0.,0.,0.00000421,0.,0.,-
 0.00012343\\0.00007040,0.00009962,0.,-0.00007773,-0.00001975,0.,0.0000
 0733,-0.00007986,0.\\\@


 THERE IS MUCH PLEASURE TO BE GAINED FROM USELESS KNOWLEDGE

                                       -- BERTRAND RUSSELL
 Job cpu time:       0 days  0 hours  0 minutes 10.5 seconds.
 File lengths (MBytes):  RWF=      5 Int=      0 D2E=      0 Chk=      1 Scr=      1
 Normal termination of Gaussian 09 at Fri Feb 24 13:16:42 2017.
