 Entering Gaussian System, Link 0=g09
 Input=MeCl_ts_IRC_reverse.gjf
 Output=MeCl_ts_IRC_reverse.out
 Initial command:
 /n/sw/g09_D.01/g09/l1.exe "/scratch/ekwan_MeCl_ts_IRC_reverse/Gau-57519.inp" -scrdir="/scratch/ekwan_MeCl_ts_IRC_reverse/"
 Entering Link 1 = /n/sw/g09_D.01/g09/l1.exe PID=     57520.
  
 Copyright (c) 1988,1990,1992,1993,1995,1998,2003,2009,2013,
            Gaussian, Inc.  All Rights Reserved.
  
 This is part of the Gaussian(R) 09 program.  It is based on
 the Gaussian(R) 03 system (copyright 2003, Gaussian, Inc.),
 the Gaussian(R) 98 system (copyright 1998, Gaussian, Inc.),
 the Gaussian(R) 94 system (copyright 1995, Gaussian, Inc.),
 the Gaussian 92(TM) system (copyright 1992, Gaussian, Inc.),
 the Gaussian 90(TM) system (copyright 1990, Gaussian, Inc.),
 the Gaussian 88(TM) system (copyright 1988, Gaussian, Inc.),
 the Gaussian 86(TM) system (copyright 1986, Carnegie Mellon
 University), and the Gaussian 82(TM) system (copyright 1983,
 Carnegie Mellon University). Gaussian is a federally registered
 trademark of Gaussian, Inc.
  
 This software contains proprietary and confidential information,
 including trade secrets, belonging to Gaussian, Inc.
  
 This software is provided under written license and may be
 used, copied, transmitted, or stored only in accord with that
 written license.
  
 The following legend is applicable only to US Government
 contracts under FAR:
  
                    RESTRICTED RIGHTS LEGEND
  
 Use, reproduction and disclosure by the US Government is
 subject to restrictions as set forth in subparagraphs (a)
 and (c) of the Commercial Computer Software - Restricted
 Rights clause in FAR 52.227-19.
  
 Gaussian, Inc.
 340 Quinnipiac St., Bldg. 40, Wallingford CT 06492
  
  
 ---------------------------------------------------------------
 Warning -- This program may not be used in any manner that
 competes with the business of Gaussian, Inc. or will provide
 assistance to any competitor of Gaussian, Inc.  The licensee
 of this program is prohibited from giving any competitor of
 Gaussian, Inc. access to this program.  By using this program,
 the user acknowledges that Gaussian, Inc. is engaged in the
 business of creating and licensing software in the field of
 computational chemistry and represents and warrants to the
 licensee that it is not a competitor of Gaussian, Inc. and that
 it will not use this program in any manner prohibited above.
 ---------------------------------------------------------------
  

 Cite this work as:
 Gaussian 09, Revision D.01,
 M. J. Frisch, G. W. Trucks, H. B. Schlegel, G. E. Scuseria, 
 M. A. Robb, J. R. Cheeseman, G. Scalmani, V. Barone, B. Mennucci, 
 G. A. Petersson, H. Nakatsuji, M. Caricato, X. Li, H. P. Hratchian, 
 A. F. Izmaylov, J. Bloino, G. Zheng, J. L. Sonnenberg, M. Hada, 
 M. Ehara, K. Toyota, R. Fukuda, J. Hasegawa, M. Ishida, T. Nakajima, 
 Y. Honda, O. Kitao, H. Nakai, T. Vreven, J. A. Montgomery, Jr., 
 J. E. Peralta, F. Ogliaro, M. Bearpark, J. J. Heyd, E. Brothers, 
 K. N. Kudin, V. N. Staroverov, T. Keith, R. Kobayashi, J. Normand, 
 K. Raghavachari, A. Rendell, J. C. Burant, S. S. Iyengar, J. Tomasi, 
 M. Cossi, N. Rega, J. M. Millam, M. Klene, J. E. Knox, J. B. Cross, 
 V. Bakken, C. Adamo, J. Jaramillo, R. Gomperts, R. E. Stratmann, 
 O. Yazyev, A. J. Austin, R. Cammi, C. Pomelli, J. W. Ochterski, 
 R. L. Martin, K. Morokuma, V. G. Zakrzewski, G. A. Voth, 
 P. Salvador, J. J. Dannenberg, S. Dapprich, A. D. Daniels, 
 O. Farkas, J. B. Foresman, J. V. Ortiz, J. Cioslowski, 
 and D. J. Fox, Gaussian, Inc., Wallingford CT, 2013.
 
 ******************************************
 Gaussian 09:  EM64L-G09RevD.01 24-Apr-2013
                15-Mar-2017 
 ******************************************
 %mem=1GB
 --------------------------------------------------------------
 #p am1 IRC=(reverse,calcfc,maxpoints=500,stepsize=1,recalc=10)
 --------------------------------------------------------------
 1/10=4,14=-1,18=10,22=2,26=1,38=1,39=1,42=500,44=3,71=10/1,23;
 2/12=2,17=6,18=5,29=1,40=1/2;
 3/5=2,16=1,25=1,41=700000,71=2,140=1/1,2,3;
 4/35=1/1;
 5/5=2,35=1,38=5/2;
 8/6=4,10=90,11=11/1;
 11/6=1,8=1,9=11,15=111,16=1/1,2,10;
 10/6=1,13=1/2;
 6/7=2,8=2,9=2,10=2,28=1/1;
 7/10=1,18=20,25=1/1,2,3,16;
 1/10=4,14=-1,18=10,22=2,26=1,39=1,42=500,44=3,71=10/23(2);
 2/29=1/2;
 99/5=20/99;
 2/29=1/2;
 3/5=2,16=1,25=1,41=700000,71=2,135=20,140=1/1,2,3;
 4/5=5,16=3,35=1/1;
 5/5=2,35=1,38=5/2;
 8/6=4,10=90,11=11/1;
 11/6=1,8=1,9=11,15=111,16=1/1,2,10;
 10/6=1,13=1/2;
 7/10=1,18=20,25=1/1,2,3,16;
 1/14=-1,18=10,22=2,26=1,39=1,42=500,44=3,71=10/23(-8);
 2/29=1/2;
 6/7=2,8=2,9=2,10=2,19=2,28=1/1;
 99/5=20,9=1/99;
 Leave Link    1 at Wed Mar 15 20:07:27 2017, MaxMem=   134217728 cpu:         0.0
 (Enter /n/sw/g09_D.01/g09/l101.exe)
 -------------------------
 Cl- + CH3Cl IRC (reverse)
 -------------------------
 Symbolic Z-matrix:
 Charge = -1 Multiplicity = 1
 C                    -0.00018   0.        0. 
 H                     0.00043  -0.75229  -0.79859 
 H                     0.00044  -0.31546   1.0508 
 H                     0.00044   1.06775  -0.2522 
 Cl                    2.15389  0.        0. 
 Cl                   -2.1539   0.        0. 
 
 NAtoms=      6 NQM=        6 NQMF=       0 NMMI=      0 NMMIF=      0
                NMic=       0 NMicF=      0.
                    Isotopes and Nuclear Properties:
 (Nuclear quadrupole moments (NQMom) in fm**2, nuclear magnetic moments (NMagM)
  in nuclear magnetons)

  Atom         1           2           3           4           5           6
 IAtWgt=          12           1           1           1          35          35
 AtmWgt=  12.0000000   1.0078250   1.0078250   1.0078250  34.9688527  34.9688527
 NucSpn=           0           1           1           1           3           3
 AtZEff=   0.0000000   0.0000000   0.0000000   0.0000000   0.0000000   0.0000000
 NQMom=    0.0000000   0.0000000   0.0000000   0.0000000  -8.1650000  -8.1650000
 NMagM=    0.0000000   2.7928460   2.7928460   2.7928460   0.8218740   0.8218740
 AtZNuc=   6.0000000   1.0000000   1.0000000   1.0000000  17.0000000  17.0000000
 Leave Link  101 at Wed Mar 15 20:07:27 2017, MaxMem=   134217728 cpu:         0.2
 (Enter /n/sw/g09_D.01/g09/l123.exe)
 IRC-IRC-IRC-IRC-IRC-IRC-IRC-IRC-IRC-IRC-IRC-IRC-IRC-IRC-IRC-IRC-IRC-IRC
 ------------------------------------------------------------------------
 INPUT DATA FOR L123
 ------------------------------------------------------------------------
 GENERAL PARAMETERS:
 Rxn path following direction = Reverse
 Maximum points per path      = 500
 Step size                    =   0.010 bohr
 Integration scheme           = HPC                                 
    Redo corrector integration= Yes                                 
    DWI Weight Power          =  2
    DWI will use Hessian update vectors when possible.
    Max correction cycles     =  20
 Initial Hessian              = CalcFC
 Hessian evaluation           = Analytic every  10 predictor steps
                              = Update at all corrector steps
 Hessian updating method      = Bofill                              
 ------------------------------------------------------------------------
 IRC-IRC-IRC-IRC-IRC-IRC-IRC-IRC-IRC-IRC-IRC-IRC-IRC-IRC-IRC-IRC-IRC-IRC
 Leave Link  123 at Wed Mar 15 20:07:27 2017, MaxMem=   134217728 cpu:         0.0
 (Enter /n/sw/g09_D.01/g09/l202.exe)
                          Input orientation:                          
 ---------------------------------------------------------------------
 Center     Atomic      Atomic             Coordinates (Angstroms)
 Number     Number       Type             X           Y           Z
 ---------------------------------------------------------------------
      1          6           0       -0.000176    0.000003    0.000003
      2          1           0        0.000425   -0.752288   -0.798592
      3          1           0        0.000436   -0.315461    1.050801
      4          1           0        0.000439    1.067753   -0.252197
      5         17           0        2.153891   -0.000001   -0.000001
      6         17           0       -2.153905   -0.000001   -0.000001
 ---------------------------------------------------------------------
                    Distance matrix (angstroms):
                    1          2          3          4          5
     1  C    0.000000
     2  H    1.097131   0.000000
     3  H    1.097130   1.900282   0.000000
     4  H    1.097130   1.900289   1.900285   0.000000
     5  Cl   2.154067   2.416837   2.416830   2.416828   0.000000
     6  Cl   2.153729   2.417606   2.417620   2.417623   4.307796
                    6
     6  Cl   0.000000
 Symmetry turned off by external request.
 This structure is nearly, but not quite of a higher symmetry.
 Consider Symm=Loose if the higher symmetry is desired.
 Stoichiometry    CH3Cl2(1-)
 Framework group  C1[X(CH3Cl2)]
 Deg. of freedom    12
 Full point group                 C1      NOp   1
 Rotational constants (GHZ):    138.8655089      1.5489119      1.5489118
 Leave Link  202 at Wed Mar 15 20:07:27 2017, MaxMem=   134217728 cpu:         0.0
 (Enter /n/sw/g09_D.01/g09/l301.exe)
 Standard basis: VSTO-6G (5D, 7F)
 Ernie: Thresh=  0.10000D-02 Tol=  0.10000D-05 Strict=F.
  NNHCO=     0 NNPyr=     0 NCTC=     0               EPep=         0.000000000
    EC=        31.366153347  ECS=         0.473195195   EG=         0.093088288
   EHC=         0.000000000  EAt=       -33.052414446  AtH=         0.613817032
 EPDDG=         0.000000000  ECC=        31.932436829 EAtT=        33.666231478
    15 basis functions,    90 primitive gaussians,    15 cartesian basis functions
    11 alpha electrons       11 beta electrons
       nuclear repulsion energy        65.5986683076 Hartrees.
 IExCor=    0 DFT=F Ex=HF Corr=None ExCW=0 ScaHFX=  1.000000
 ScaDFX=  1.000000  1.000000  1.000000  1.000000 ScalE2=  1.000000  1.000000
 IRadAn=      0 IRanWt=     -1 IRanGd=            0 ICorTp=0 IEmpDi=  4
 Integral buffers will be    131072 words long.
 Regular integral format.
 Two-electron integral symmetry is turned off.
 Leave Link  301 at Wed Mar 15 20:07:27 2017, MaxMem=   134217728 cpu:         0.1
 (Enter /n/sw/g09_D.01/g09/l302.exe)
 Do NDO integrals.
 NPDir=0 NMtPBC=     1 NCelOv=     1 NCel=       1 NClECP=     1 NCelD=      1
         NCelK=      1 NCelE2=     1 NClLst=     1 CellRange=     0.0.
 One-electron integrals computed using PRISM.
 NBasis=    15 RedAO= F EigKep=  0.00D+00  NBF=    15
 NBsUse=    15 1.00D-04 EigRej=  0.00D+00 NBFU=    15
 Leave Link  302 at Wed Mar 15 20:07:27 2017, MaxMem=   134217728 cpu:         0.1
 (Enter /n/sw/g09_D.01/g09/l303.exe)
 DipDrv:  MaxL=1.
 Leave Link  303 at Wed Mar 15 20:07:27 2017, MaxMem=   134217728 cpu:         0.1
 (Enter /n/sw/g09_D.01/g09/l401.exe)
 Simple Huckel Guess.
 JPrj=0 DoOrth=F DoCkMO=F.
 Leave Link  401 at Wed Mar 15 20:07:27 2017, MaxMem=   134217728 cpu:         0.1
 (Enter /n/sw/g09_D.01/g09/l502.exe)
 Closed shell SCF:
 Using DIIS extrapolation, IDIIS=  1040.
 Overlap will be assumed to be unity.
 Two-electron integral symmetry not used.
 Keep J ints in memory in canonical form, NReq=884770.
 IVT=       79028 IEndB=       79028 NGot=   134217728 MDV=   134138140
 LenX=   134138140 LenY=   134137258
 Requested convergence on RMS density matrix=1.00D-08 within 128 cycles.
 Requested convergence on MAX density matrix=1.00D-06.
 Requested convergence on             energy=1.00D-06.
 No special actions if energy rises.
 FoFCou: FMM=F IPFlag=           0 FMFlag=           0 FMFlg1=           0
         NFxFlg=           0 DoJE=F BraDBF=F KetDBF=F FulRan=T
         wScrn=  0.000000 ICntrl=     600 IOpCl=  2 I1Cent=           0 NGrid=           0
         NMat0=    1 NMatS0=     33 NMatT0=    0 NMatD0=    1 NMtDS0=    0 NMtDT0=    0
 Symmetry not used in FoFCou.

 Cycle   1  Pass 1  IDiag  1:
 E= 0.697520225561732E-01
 DIIS: error= 6.80D-02 at cycle   1 NSaved=   1.
 NSaved= 1 IEnMin= 1 EnMin= 0.697520225561732E-01 IErMin= 1 ErrMin= 6.80D-02
 ErrMax= 6.80D-02  0.00D+00 EMaxC= 1.00D-01 BMatC= 7.46D-02 BMatP= 7.46D-02
 IDIUse=3 WtCom= 3.20D-01 WtEn= 6.80D-01
 Coeff-Com:  0.100D+01
 Coeff-En:   0.100D+01
 Coeff:      0.100D+01
 GapD=    2.000 DampG=2.000 DampE=0.500 DampFc=1.0000 IDamp=-1.
 RMSDP=2.16D-02 MaxDP=1.29D-01              OVMax= 0.00D+00

 Cycle   2  Pass 1  IDiag  1:
 E=-0.824644848788694E-01 Delta-E=       -0.152216507435 Rises=F Damp=F
 DIIS: error= 1.18D-02 at cycle   2 NSaved=   2.
 NSaved= 2 IEnMin= 2 EnMin=-0.824644848788694E-01 IErMin= 2 ErrMin= 1.18D-02
 ErrMax= 1.18D-02  0.00D+00 EMaxC= 1.00D-01 BMatC= 3.08D-03 BMatP= 7.46D-02
 IDIUse=3 WtCom= 8.82D-01 WtEn= 1.18D-01
 Coeff-Com: -0.244D+00 0.124D+01
 Coeff-En:   0.000D+00 0.100D+01
 Coeff:     -0.215D+00 0.122D+01
 RMSDP=5.53D-03 MaxDP=3.93D-02 DE=-1.52D-01 OVMax= 0.00D+00

 Cycle   3  Pass 1  IDiag  3:
 E=-0.892714101340175E-01 Delta-E=       -0.006806925255 Rises=F Damp=F
 DIIS: error= 1.16D-03 at cycle   3 NSaved=   3.
 NSaved= 3 IEnMin= 3 EnMin=-0.892714101340175E-01 IErMin= 3 ErrMin= 1.16D-03
 ErrMax= 1.16D-03  0.00D+00 EMaxC= 1.00D-01 BMatC= 3.35D-05 BMatP= 3.08D-03
 IDIUse=3 WtCom= 9.88D-01 WtEn= 1.16D-02
 Coeff-Com:  0.911D-01-0.514D+00 0.142D+01
 Coeff-En:   0.000D+00 0.000D+00 0.100D+01
 Coeff:      0.900D-01-0.508D+00 0.142D+01
 Gap=     0.370 Goal=   None    Shift=    0.000
 RMSDP=1.33D-03 MaxDP=6.45D-03 DE=-6.81D-03 OVMax= 1.14D-02

 Cycle   4  Pass 1  IDiag  3:
 E=-0.894575969607843E-01 Delta-E=       -0.000186186827 Rises=F Damp=F
 DIIS: error= 2.02D-04 at cycle   4 NSaved=   4.
 NSaved= 4 IEnMin= 4 EnMin=-0.894575969607843E-01 IErMin= 4 ErrMin= 2.02D-04
 ErrMax= 2.02D-04  0.00D+00 EMaxC= 1.00D-01 BMatC= 1.54D-06 BMatP= 3.35D-05
 IDIUse=3 WtCom= 9.98D-01 WtEn= 2.02D-03
 Coeff-Com: -0.193D-01 0.107D+00-0.439D+00 0.135D+01
 Coeff-En:   0.000D+00 0.000D+00 0.000D+00 0.100D+01
 Coeff:     -0.193D-01 0.107D+00-0.438D+00 0.135D+01
 Gap=     0.370 Goal=   None    Shift=    0.000
 RMSDP=3.68D-04 MaxDP=1.45D-03 DE=-1.86D-04 OVMax= 3.57D-03

 Cycle   5  Pass 1  IDiag  3:
 E=-0.894688436062836E-01 Delta-E=       -0.000011246645 Rises=F Damp=F
 DIIS: error= 4.68D-05 at cycle   5 NSaved=   5.
 NSaved= 5 IEnMin= 5 EnMin=-0.894688436062836E-01 IErMin= 5 ErrMin= 4.68D-05
 ErrMax= 4.68D-05  0.00D+00 EMaxC= 1.00D-01 BMatC= 7.44D-08 BMatP= 1.54D-06
 IDIUse=1 WtCom= 1.00D+00 WtEn= 0.00D+00
 Coeff-Com:  0.483D-02-0.250D-01 0.119D+00-0.593D+00 0.149D+01
 Coeff:      0.483D-02-0.250D-01 0.119D+00-0.593D+00 0.149D+01
 Gap=     0.370 Goal=   None    Shift=    0.000
 RMSDP=9.31D-05 MaxDP=3.61D-04 DE=-1.12D-05 OVMax= 8.69D-04

 Cycle   6  Pass 1  IDiag  3:
 E=-0.894693635813439E-01 Delta-E=       -0.000000519975 Rises=F Damp=F
 DIIS: error= 8.07D-06 at cycle   6 NSaved=   6.
 NSaved= 6 IEnMin= 6 EnMin=-0.894693635813439E-01 IErMin= 6 ErrMin= 8.07D-06
 ErrMax= 8.07D-06  0.00D+00 EMaxC= 1.00D-01 BMatC= 1.52D-09 BMatP= 7.44D-08
 IDIUse=1 WtCom= 1.00D+00 WtEn= 0.00D+00
 Coeff-Com: -0.603D-03 0.234D-02-0.225D-01 0.206D+00-0.654D+00 0.147D+01
 Coeff:     -0.603D-03 0.234D-02-0.225D-01 0.206D+00-0.654D+00 0.147D+01
 Gap=     0.370 Goal=   None    Shift=    0.000
 RMSDP=1.03D-05 MaxDP=4.92D-05 DE=-5.20D-07 OVMax= 4.44D-05

 Cycle   7  Pass 1  IDiag  3:
 E=-0.894693722698037E-01 Delta-E=       -0.000000008688 Rises=F Damp=F
 DIIS: error= 1.52D-06 at cycle   7 NSaved=   7.
 NSaved= 7 IEnMin= 7 EnMin=-0.894693722698037E-01 IErMin= 7 ErrMin= 1.52D-06
 ErrMax= 1.52D-06  0.00D+00 EMaxC= 1.00D-01 BMatC= 4.13D-11 BMatP= 1.52D-09
 IDIUse=1 WtCom= 1.00D+00 WtEn= 0.00D+00
 Coeff-Com: -0.204D-03 0.137D-02-0.189D-02-0.291D-01 0.126D+00-0.461D+00
 Coeff-Com:  0.137D+01
 Coeff:     -0.204D-03 0.137D-02-0.189D-02-0.291D-01 0.126D+00-0.461D+00
 Coeff:      0.137D+01
 Gap=     0.370 Goal=   None    Shift=    0.000
 RMSDP=1.62D-06 MaxDP=8.87D-06 DE=-8.69D-09 OVMax= 9.97D-06

 Cycle   8  Pass 1  IDiag  3:
 E=-0.894693724980300E-01 Delta-E=       -0.000000000228 Rises=F Damp=F
 DIIS: error= 3.67D-07 at cycle   8 NSaved=   8.
 NSaved= 8 IEnMin= 8 EnMin=-0.894693724980300E-01 IErMin= 8 ErrMin= 3.67D-07
 ErrMax= 3.67D-07  0.00D+00 EMaxC= 1.00D-01 BMatC= 1.38D-12 BMatP= 4.13D-11
 IDIUse=1 WtCom= 1.00D+00 WtEn= 0.00D+00
 Coeff-Com:  0.322D-04-0.308D-03-0.565D-03 0.202D-01-0.750D-01 0.253D+00
 Coeff-Com: -0.749D+00 0.155D+01
 Coeff:      0.322D-04-0.308D-03-0.565D-03 0.202D-01-0.750D-01 0.253D+00
 Coeff:     -0.749D+00 0.155D+01
 Gap=     0.370 Goal=   None    Shift=    0.000
 RMSDP=3.35D-07 MaxDP=2.95D-06 DE=-2.28D-10 OVMax= 3.28D-06

 Cycle   9  Pass 1  IDiag  3:
 E=-0.894693725055333E-01 Delta-E=       -0.000000000008 Rises=F Damp=F
 DIIS: error= 4.34D-08 at cycle   9 NSaved=   9.
 NSaved= 9 IEnMin= 9 EnMin=-0.894693725055333E-01 IErMin= 9 ErrMin= 4.34D-08
 ErrMax= 4.34D-08  0.00D+00 EMaxC= 1.00D-01 BMatC= 2.09D-14 BMatP= 1.38D-12
 IDIUse=1 WtCom= 1.00D+00 WtEn= 0.00D+00
 Coeff-Com:  0.663D-05-0.262D-04 0.235D-03-0.215D-02 0.689D-02-0.202D-01
 Coeff-Com:  0.555D-01-0.127D+00 0.109D+01
 Coeff:      0.663D-05-0.262D-04 0.235D-03-0.215D-02 0.689D-02-0.202D-01
 Coeff:      0.555D-01-0.127D+00 0.109D+01
 Gap=     0.370 Goal=   None    Shift=    0.000
 RMSDP=2.72D-08 MaxDP=2.16D-07 DE=-7.50D-12 OVMax= 2.42D-07

 Cycle  10  Pass 1  IDiag  3:
 E=-0.894693725056186E-01 Delta-E=        0.000000000000 Rises=F Damp=F
 DIIS: error= 1.18D-08 at cycle  10 NSaved=  10.
 NSaved=10 IEnMin=10 EnMin=-0.894693725056186E-01 IErMin=10 ErrMin= 1.18D-08
 ErrMax= 1.18D-08  0.00D+00 EMaxC= 1.00D-01 BMatC= 1.63D-15 BMatP= 2.09D-14
 IDIUse=1 WtCom= 1.00D+00 WtEn= 0.00D+00
 Coeff-Com:  0.258D-08-0.241D-05-0.224D-04 0.410D-03-0.146D-02 0.486D-02
 Coeff-Com: -0.145D-01 0.333D-01-0.457D+00 0.143D+01
 Coeff:      0.258D-08-0.241D-05-0.224D-04 0.410D-03-0.146D-02 0.486D-02
 Coeff:     -0.145D-01 0.333D-01-0.457D+00 0.143D+01
 Gap=     0.370 Goal=   None    Shift=    0.000
 RMSDP=1.08D-08 MaxDP=8.21D-08 DE=-8.53D-14 OVMax= 9.15D-08

 Cycle  11  Pass 1  IDiag  3:
 E=-0.894693725055902E-01 Delta-E=        0.000000000000 Rises=F Damp=F
 DIIS: error= 1.16D-09 at cycle  11 NSaved=  11.
 NSaved=11 IEnMin=10 EnMin=-0.894693725056186E-01 IErMin=11 ErrMin= 1.16D-09
 ErrMax= 1.16D-09  0.00D+00 EMaxC= 1.00D-01 BMatC= 3.00D-17 BMatP= 1.63D-15
 IDIUse=1 WtCom= 1.00D+00 WtEn= 0.00D+00
 Coeff-Com: -0.439D-06 0.335D-05-0.355D-06-0.135D-03 0.531D-03-0.196D-02
 Coeff-Com:  0.612D-02-0.134D-01 0.222D+00-0.863D+00 0.165D+01
 Coeff:     -0.439D-06 0.335D-05-0.355D-06-0.135D-03 0.531D-03-0.196D-02
 Coeff:      0.612D-02-0.134D-01 0.222D+00-0.863D+00 0.165D+01
 Gap=     0.370 Goal=   None    Shift=    0.000
 RMSDP=2.14D-09 MaxDP=1.07D-08 DE= 2.84D-14 OVMax= 1.53D-08

 Cycle  12  Pass 2  IDiag  1:
 SCF Done:  E(RAM1) = -0.894693725056E-01 A.U. after   12 cycles
            NFock= 11  Conv=0.21D-08     -V/T= 0.9930
 KE=-1.277709486572D+01 PE=-1.084950703001D+02 EE= 5.558402748572D+01
 Leave Link  502 at Wed Mar 15 20:07:27 2017, MaxMem=   134217728 cpu:         0.1
 (Enter /n/sw/g09_D.01/g09/l801.exe)
 Range of M.O.s used for correlation:     1    15
 NBasis=    15 NAE=    11 NBE=    11 NFC=     0 NFV=     0
 NROrb=     15 NOA=    11 NOB=    11 NVA=     4 NVB=     4
 Leave Link  801 at Wed Mar 15 20:07:27 2017, MaxMem=   134217728 cpu:         0.1
 (Enter /n/sw/g09_D.01/g09/l1101.exe)
 Using compressed storage, NAtomX=     6.
 Will process      7 centers per pass.
 Leave Link 1101 at Wed Mar 15 20:07:27 2017, MaxMem=   134217728 cpu:         0.1
 (Enter /n/sw/g09_D.01/g09/l1102.exe)
 Symmetrizing basis deriv contribution to polar:
 IMax=3 JMax=2 DiffMx= 0.00D+00
 Leave Link 1102 at Wed Mar 15 20:07:27 2017, MaxMem=   134217728 cpu:         0.1
 (Enter /n/sw/g09_D.01/g09/l1110.exe)
 Forming Gx(P) for the SCF density, NAtomX=     6.
 Integral derivatives from FoFJK, PRISM(SPDF).
 Do as many integral derivatives as possible in FoFJK.
 G2DrvN: MDV=     134158685.
 G2DrvN: will do     7 centers at a time, making    1 passes.
 Calling FoFCou, ICntrl=  3107 FMM=F I1Cent=   0 AccDes= 0.00D+00.
 FoFJK:  IHMeth= 8 ICntrl=    3107 DoSepK=F KAlg= 0 I1Cent=   0 FoldK=F
 IRaf=         0 NMat=   1 IRICut=       1 DoRegI=T DoRafI=F ISym2E= 0.
 FoFCou: FMM=F IPFlag=           0 FMFlag=      100000 FMFlg1=           0
         NFxFlg=           0 DoJE=F BraDBF=F KetDBF=F FulRan=T
         wScrn=  0.000000 ICntrl=    3107 IOpCl=  0 I1Cent=           0 NGrid=           0
         NMat0=    1 NMatS0=      1 NMatT0=    0 NMatD0=    1 NMtDS0=    0 NMtDT0=    0
 Symmetry not used in FoFCou.
 End of G2Drv F.D. properties file   721 does not exist.
 End of G2Drv F.D. properties file   722 does not exist.
 End of G2Drv F.D. properties file   788 does not exist.
 Leave Link 1110 at Wed Mar 15 20:07:28 2017, MaxMem=   134217728 cpu:         0.0
 (Enter /n/sw/g09_D.01/g09/l1002.exe)
 Minotr:  Closed shell wavefunction.
          IDoAtm=111111
          Direct CPHF calculation.
          Differentiating once with respect to nuclear coordinates.
          Electric field/nuclear overlap derivatives assumed to be zero.
          Requested convergence is 1.0D-08 RMS, and 1.0D-07 maximum.
          NewPWx=T KeepS1=F KeepF1=F KeepIn=T MapXYZ=F SortEE=F KeepMc=T.
          MDV=     134158758 using IRadAn=       2.
 Keep J ints in memory in canonical form, NReq=867888.
 FoFCou: FMM=F IPFlag=           0 FMFlag=           0 FMFlg1=           0
         NFxFlg=           0 DoJE=F BraDBF=F KetDBF=F FulRan=T
         wScrn=  0.000000 ICntrl=     600 IOpCl=  2 I1Cent=           0 NGrid=           0
         NMat0=    1 NMatS0=     33 NMatT0=    0 NMatD0=    1 NMtDS0=    0 NMtDT0=    0
 Symmetry not used in FoFCou.
          Solving linear equations separately, MaxMat=       0.
          There are    21 degrees of freedom in the 1st order CPHF.  IDoFFX=5 NUNeed=    21.
 LinEq1:  Iter=  0 NonCon=    18 RMS=5.69D-02 Max=3.10D-01 NDo=    18
 AX will form    21 AO Fock derivatives at one time.
 LinEq1:  Iter=  1 NonCon=    18 RMS=5.26D-03 Max=2.61D-02 NDo=    21
 LinEq1:  Iter=  2 NonCon=    18 RMS=2.43D-04 Max=7.91D-04 NDo=    21
 LinEq1:  Iter=  3 NonCon=    18 RMS=1.77D-05 Max=6.83D-05 NDo=    21
 LinEq1:  Iter=  4 NonCon=    18 RMS=1.96D-06 Max=1.01D-05 NDo=    21
 LinEq1:  Iter=  5 NonCon=    18 RMS=1.67D-07 Max=5.55D-07 NDo=    21
 LinEq1:  Iter=  6 NonCon=     0 RMS=9.91D-09 Max=4.53D-08 NDo=    21
 Linear equations converged to 1.000D-08 1.000D-07 after     6 iterations.
 End of Minotr F.D. properties file   721 does not exist.
 End of Minotr F.D. properties file   722 does not exist.
 End of Minotr F.D. properties file   788 does not exist.
 Leave Link 1002 at Wed Mar 15 20:07:28 2017, MaxMem=   134217728 cpu:         0.1
 (Enter /n/sw/g09_D.01/g09/l601.exe)
 Copying SCF densities to generalized density rwf, IOpCl= 0 IROHF=0.

 **********************************************************************

            Population analysis using the SCF density.

 **********************************************************************

 Alpha  occ. eigenvalues --   -1.06466  -1.05472  -0.87413  -0.37619  -0.37619
 Alpha  occ. eigenvalues --   -0.30676  -0.21546  -0.21546  -0.20321  -0.20321
 Alpha  occ. eigenvalues --   -0.16206
 Alpha virt. eigenvalues --    0.20826   0.31011   0.32684   0.32684
          Condensed to atoms (all electrons):
               1          2          3          4          5          6
     1  C    3.895091   0.000000   0.000000   0.000000   0.000000   0.000000
     2  H    0.000000   0.894370   0.000000   0.000000   0.000000   0.000000
     3  H    0.000000   0.000000   0.894370   0.000000   0.000000   0.000000
     4  H    0.000000   0.000000   0.000000   0.894369   0.000000   0.000000
     5  Cl   0.000000   0.000000   0.000000   0.000000   7.711191   0.000000
     6  Cl   0.000000   0.000000   0.000000   0.000000   0.000000   7.710609
 Mulliken charges:
               1
     1  C    0.104909
     2  H    0.105630
     3  H    0.105630
     4  H    0.105631
     5  Cl  -0.711191
     6  Cl  -0.710609
 Sum of Mulliken charges =  -1.00000
 Mulliken charges with hydrogens summed into heavy atoms:
               1
     1  C    0.421800
     5  Cl  -0.711191
     6  Cl  -0.710609
 APT charges:
               1
     1  C    0.104909
     2  H    0.105630
     3  H    0.105630
     4  H    0.105631
     5  Cl  -0.711191
     6  Cl  -0.710609
 Sum of APT charges =  -1.00000
 APT charges with hydrogens summed into heavy atoms:
               1
     1  C    0.421800
     5  Cl  -0.711191
     6  Cl  -0.710609
 Charge=             -1.0000 electrons
 Dipole moment (field-independent basis, Debye):
    X=             -0.0052    Y=              0.0000    Z=              0.0000  Tot=              0.0052
 N-N= 6.559866830758D+01 E-N=-1.084950703050D+02  KE=-1.277709486572D+01
  Exact polarizability:   0.000   0.000   0.000   0.000   0.000   0.000
 Approx polarizability:  51.224   0.000   4.685   0.000   0.000   4.684
 Leave Link  601 at Wed Mar 15 20:07:28 2017, MaxMem=   134217728 cpu:         0.0
 (Enter /n/sw/g09_D.01/g09/l701.exe)
 Compute integral second derivatives.
 ... and contract with generalized density number  0.
 Leave Link  701 at Wed Mar 15 20:07:28 2017, MaxMem=   134217728 cpu:         0.1
 (Enter /n/sw/g09_D.01/g09/l702.exe)
 L702 exits ... SP integral derivatives will be done elsewhere.
 Leave Link  702 at Wed Mar 15 20:07:28 2017, MaxMem=   134217728 cpu:         0.0
 (Enter /n/sw/g09_D.01/g09/l703.exe)
 Compute integral second derivatives, UseDBF=F ICtDFT=           0.
 Integral derivatives from FoFJK, PRISM(SPDF).
 Calling FoFJK, ICntrl=    100147 FMM=F ISym2X=0 I1Cent= 0 IOpClX= 0 NMat=1 NMatS=1 NMatT=0.
 FoFJK:  IHMeth= 8 ICntrl=  100147 DoSepK=F KAlg= 0 I1Cent=   0 FoldK=F
 IRaf=         0 NMat=   1 IRICut=       1 DoRegI=T DoRafI=F ISym2E= 0.
 FoFCou: FMM=F IPFlag=           0 FMFlag=      100000 FMFlg1=         800
         NFxFlg=           0 DoJE=F BraDBF=F KetDBF=F FulRan=T
         wScrn=  0.000000 ICntrl=  100147 IOpCl=  0 I1Cent=           0 NGrid=           0
         NMat0=    1 NMatS0=      1 NMatT0=    0 NMatD0=    1 NMtDS0=    0 NMtDT0=    0
 Symmetry not used in FoFCou.
 Leave Link  703 at Wed Mar 15 20:07:28 2017, MaxMem=   134217728 cpu:         0.1
 (Enter /n/sw/g09_D.01/g09/l716.exe)
 Dipole        =-2.03533273D-03 4.47172365D-06 4.75826726D-06
 Polarizability= 0.00000000D+00 0.00000000D+00 0.00000000D+00
                 0.00000000D+00 0.00000000D+00 0.00000000D+00
 -------------------------------------------------------------------
 Center     Atomic                   Forces (Hartrees/Bohr)
 Number     Number              X              Y              Z
 -------------------------------------------------------------------
      1        6          -0.000022358   -0.000000649   -0.000000287
      2        1          -0.000039316   -0.000053431   -0.000057403
      3        1          -0.000040103   -0.000022432    0.000075747
      4        1          -0.000040318    0.000076310   -0.000018202
      5       17           0.000160936   -0.000000090   -0.000000061
      6       17          -0.000018841    0.000000292    0.000000206
 -------------------------------------------------------------------
 Cartesian Forces:  Max     0.000160936 RMS     0.000052747
 Z-matrix is all fixed cartesians, so copy forces.
 Force constants in Cartesian coordinates: 
                1             2             3             4             5 
      1 -0.840538D-01
      2  0.265724D-05  0.571912D+00
      3  0.185970D-05  0.000000D+00  0.571910D+00
      4 -0.179709D-02  0.989023D-04  0.104994D-03  0.410090D-01
      5  0.106928D-03 -0.174599D+00 -0.139688D+00 -0.977548D-04  0.189863D+00
      6  0.113576D-03 -0.139688D+00 -0.191296D+00 -0.103811D-03  0.159163D+00
      7 -0.179741D-02  0.421977D-04 -0.140607D-03  0.313358D-02  0.000000D+00
      8  0.455463D-04 -0.661487D-01  0.770761D-01 -0.341176D-05  0.630920D-02
      9 -0.152451D-03  0.770761D-01 -0.299747D+00 -0.477379D-05  0.174380D-02
     10 -0.179736D-02 -0.143553D-03  0.338958D-04  0.313347D-02  0.557319D-05
     11 -0.155714D-03 -0.308097D+00  0.626130D-01 -0.460130D-05 -0.218565D-01
     12  0.366081D-04  0.626129D-01 -0.577986D-01 -0.370904D-05 -0.180054D-01
     13  0.446920D-01  0.000000D+00  0.000000D+00 -0.227398D-01 -0.369186D-02
     14  0.000000D+00 -0.115088D-01  0.000000D+00 -0.661753D-02  0.140715D-03
     15  0.000000D+00  0.000000D+00 -0.115089D-01 -0.702488D-02 -0.160842D-02
     16  0.447531D-01  0.000000D+00  0.000000D+00 -0.227390D-01  0.367806D-02
     17  0.000000D+00 -0.115597D-01  0.000000D+00  0.662440D-02  0.142563D-03
     18  0.000000D+00  0.000000D+00 -0.115597D-01  0.703218D-02 -0.160404D-02
                6             7             8             9            10 
      6  0.208888D+00
      7  0.554998D-05  0.410088D-01
      8 -0.163220D-01 -0.416936D-04  0.662940D-01
      9 -0.228290D-01  0.139319D-03 -0.878212D-01  0.332458D+00
     10  0.000000D+00  0.313355D-02  0.539098D-05 -0.203457D-05  0.410089D-01
     11  0.603708D-04 -0.239600D-05 -0.923181D-02  0.722874D-02  0.142303D-03
     12  0.533724D-02  0.531170D-05  0.252945D-01 -0.728770D-02 -0.335098D-04
     13 -0.391911D-02 -0.227398D-01 -0.154813D-02  0.515707D-02 -0.227399D-01
     14 -0.160843D-02 -0.277496D-02  0.138949D-02  0.887512D-03  0.939260D-02
     15 -0.515545D-04  0.924350D-02  0.887480D-03 -0.130040D-02 -0.221848D-02
     16  0.390441D-02 -0.227385D-01  0.154230D-02 -0.513713D-02 -0.227385D-01
     17 -0.160403D-02  0.277780D-02  0.138785D-02  0.884994D-03 -0.940231D-02
     18 -0.491676D-04 -0.925307D-02  0.885041D-03 -0.129442D-02  0.222074D-02
               11            12            13            14            15 
     11  0.341972D+00
     12 -0.713420D-01  0.567798D-01
     13  0.524034D-02 -0.123767D-02  0.587117D-01
     14 -0.139658D-02  0.720957D-03  0.000000D+00  0.935430D-02
     15  0.720984D-03  0.148565D-02  0.000000D+00  0.000000D+00  0.935427D-02
     16 -0.521993D-02  0.123297D-02 -0.351842D-01  0.000000D+00  0.000000D+00
     17 -0.139029D-02  0.718957D-03  0.000000D+00  0.202087D-02  0.000000D+00
     18  0.718922D-03  0.148371D-02  0.000000D+00  0.000000D+00  0.202087D-02
               16            17            18 
     16  0.586471D-01
     17  0.000000D+00  0.939870D-02
     18  0.000000D+00  0.000000D+00  0.939869D-02
 Leave Link  716 at Wed Mar 15 20:07:28 2017, MaxMem=   134217728 cpu:         0.0
 (Enter /n/sw/g09_D.01/g09/l123.exe)
 IRC-IRC-IRC-IRC-IRC-IRC-IRC-IRC-IRC-IRC-IRC-IRC-IRC-IRC-IRC-IRC-IRC-IRC
          ******** Start new reaction path calculation ********
 Current Structure is TS -> form Hessian eigenvectors.
                            Diagonalizing Hessian.
 Supplied step size of   0.0100 bohr.
    Integration on MW PES will use step size of   0.0358 sqrt(amu)*bohr.
 Point Number:   0          Path Number:   1
 Calculating another point on the path.
 Point Number  1 in REVERSE path direction.
 Using LQA Reaction Path Following.
 IRC-IRC-IRC-IRC-IRC-IRC-IRC-IRC-IRC-IRC-IRC-IRC-IRC-IRC-IRC-IRC-IRC-IRC
 Leave Link  123 at Wed Mar 15 20:07:28 2017, MaxMem=   134217728 cpu:         0.0
 (Enter /n/sw/g09_D.01/g09/l202.exe)
                          Input orientation:                          
 ---------------------------------------------------------------------
 Center     Atomic      Atomic             Coordinates (Angstroms)
 Number     Number       Type             X           Y           Z
 ---------------------------------------------------------------------
      1          6           0        0.004911    0.000003    0.000003
      2          1           0       -0.000090   -0.752289   -0.798593
      3          1           0       -0.000078   -0.315461    1.050803
      4          1           0       -0.000075    1.067756   -0.252197
      5         17           0        2.153059   -0.000001   -0.000001
      6         17           0       -2.154738   -0.000001   -0.000001
 ---------------------------------------------------------------------
                    Distance matrix (angstroms):
                    1          2          3          4          5
     1  C    0.000000
     2  H    1.097144   0.000000
     3  H    1.097144   1.900286   0.000000
     4  H    1.097144   1.900293   1.900289   0.000000
     5  Cl   2.148148   2.416555   2.416549   2.416546   0.000000
     6  Cl   2.159649   2.417891   2.417904   2.417907   4.307797
                    6
     6  Cl   0.000000
 Symmetry turned off by external request.
 Stoichiometry    CH3Cl2(1-)
 Framework group  C1[X(CH3Cl2)]
 Deg. of freedom    12
 Full point group                 C1      NOp   1
 Rotational constants (GHZ):    138.8649349      1.5489097      1.5489096
 Leave Link  202 at Wed Mar 15 20:07:28 2017, MaxMem=   134217728 cpu:         0.0
 (Enter /n/sw/g09_D.01/g09/l301.exe)
 Standard basis: VSTO-6G (5D, 7F)
 Ernie: Thresh=  0.10000D-02 Tol=  0.10000D-05 Strict=F.
  NNHCO=     0 NNPyr=     0 NCTC=     0               EPep=         0.000000000
    EC=        31.366171943  ECS=         0.473188776   EG=         0.093093418
   EHC=         0.000000000  EAt=       -33.052414446  AtH=         0.613817032
 EPDDG=         0.000000000  ECC=        31.932454138 EAtT=        33.666231478
    15 basis functions,    90 primitive gaussians,    15 cartesian basis functions
    11 alpha electrons       11 beta electrons
       nuclear repulsion energy        65.5986856161 Hartrees.
 IExCor=    0 DFT=F Ex=HF Corr=None ExCW=0 ScaHFX=  1.000000
 ScaDFX=  1.000000  1.000000  1.000000  1.000000 ScalE2=  1.000000  1.000000
 IRadAn=      0 IRanWt=     -1 IRanGd=            0 ICorTp=0 IEmpDi=  4
 Integral buffers will be    131072 words long.
 Regular integral format.
 Two-electron integral symmetry is turned off.
 Leave Link  301 at Wed Mar 15 20:07:28 2017, MaxMem=   134217728 cpu:         0.1
 (Enter /n/sw/g09_D.01/g09/l302.exe)
 Do NDO integrals.
 NPDir=0 NMtPBC=     1 NCelOv=     1 NCel=       1 NClECP=     1 NCelD=      1
         NCelK=      1 NCelE2=     1 NClLst=     1 CellRange=     0.0.
 One-electron integrals computed using PRISM.
 NBasis=    15 RedAO= F EigKep=  0.00D+00  NBF=    15
 NBsUse=    15 1.00D-04 EigRej=  0.00D+00 NBFU=    15
 Leave Link  302 at Wed Mar 15 20:07:28 2017, MaxMem=   134217728 cpu:         0.1
 (Enter /n/sw/g09_D.01/g09/l303.exe)
 DipDrv:  MaxL=1.
 Leave Link  303 at Wed Mar 15 20:07:28 2017, MaxMem=   134217728 cpu:         0.1
 (Enter /n/sw/g09_D.01/g09/l401.exe)
 Initial guess from the checkpoint file:  "/scratch/ekwan_MeCl_ts_IRC_reverse/Gau-57520.chk"
 B after Tr=     0.000030    0.000001    0.000000
         Rot=    1.000000    0.000000    0.000000    0.000000 Ang=   0.00 deg.
 Guess basis will be translated and rotated to current coordinates.
 JPrj=0 DoOrth=T DoCkMO=T.
 Leave Link  401 at Wed Mar 15 20:07:28 2017, MaxMem=   134217728 cpu:         0.1
 (Enter /n/sw/g09_D.01/g09/l502.exe)
 Closed shell SCF:
 Using DIIS extrapolation, IDIIS=  1040.
 Overlap will be assumed to be unity.
 Two-electron integral symmetry not used.
 Keep J ints in memory in canonical form, NReq=884770.
 IVT=       79028 IEndB=       79028 NGot=   134217728 MDV=   134138140
 LenX=   134138140 LenY=   134137258
 Requested convergence on RMS density matrix=1.00D-08 within 128 cycles.
 Requested convergence on MAX density matrix=1.00D-06.
 Requested convergence on             energy=1.00D-06.
 No special actions if energy rises.
 FoFCou: FMM=F IPFlag=           0 FMFlag=           0 FMFlg1=           0
         NFxFlg=           0 DoJE=F BraDBF=F KetDBF=F FulRan=T
         wScrn=  0.000000 ICntrl=     600 IOpCl=  2 I1Cent=           0 NGrid=           0
         NMat0=    1 NMatS0=     33 NMatT0=    0 NMatD0=    1 NMtDS0=    0 NMtDT0=    0
 Symmetry not used in FoFCou.

 Cycle   1  Pass 1  IDiag  1:
 E=-0.894466510587364E-01
 DIIS: error= 6.51D-04 at cycle   1 NSaved=   1.
 NSaved= 1 IEnMin= 1 EnMin=-0.894466510587364E-01 IErMin= 1 ErrMin= 6.51D-04
 ErrMax= 6.51D-04  0.00D+00 EMaxC= 1.00D-01 BMatC= 4.96D-06 BMatP= 4.96D-06
 IDIUse=3 WtCom= 9.93D-01 WtEn= 6.51D-03
 Coeff-Com:  0.100D+01
 Coeff-En:   0.100D+01
 Coeff:      0.100D+01
 RMSDP=3.90D-04 MaxDP=1.80D-03              OVMax= 0.00D+00

 Cycle   2  Pass 1  IDiag  3:
 E=-0.894697628141472E-01 Delta-E=       -0.000023111755 Rises=F Damp=F
 DIIS: error= 1.95D-04 at cycle   2 NSaved=   2.
 NSaved= 2 IEnMin= 2 EnMin=-0.894697628141472E-01 IErMin= 2 ErrMin= 1.95D-04
 ErrMax= 1.95D-04  0.00D+00 EMaxC= 1.00D-01 BMatC= 6.92D-07 BMatP= 4.96D-06
 IDIUse=3 WtCom= 9.98D-01 WtEn= 1.95D-03
 Coeff-Com: -0.464D+00 0.146D+01
 Coeff-En:   0.000D+00 0.100D+01
 Coeff:     -0.463D+00 0.146D+01
 Gap=     0.370 Goal=   None    Shift=    0.000
 RMSDP=2.25D-04 MaxDP=9.92D-04 DE=-2.31D-05 OVMax= 1.82D-03

 Cycle   3  Pass 1  IDiag  3:
 E=-0.894741589304573E-01 Delta-E=       -0.000004396116 Rises=F Damp=F
 DIIS: error= 3.05D-05 at cycle   3 NSaved=   3.
 NSaved= 3 IEnMin= 3 EnMin=-0.894741589304573E-01 IErMin= 3 ErrMin= 3.05D-05
 ErrMax= 3.05D-05  0.00D+00 EMaxC= 1.00D-01 BMatC= 2.68D-08 BMatP= 6.92D-07
 IDIUse=1 WtCom= 1.00D+00 WtEn= 0.00D+00
 Coeff-Com:  0.168D+00-0.656D+00 0.149D+01
 Coeff:      0.168D+00-0.656D+00 0.149D+01
 Gap=     0.370 Goal=   None    Shift=    0.000
 RMSDP=4.87D-05 MaxDP=1.91D-04 DE=-4.40D-06 OVMax= 4.03D-04

 Cycle   4  Pass 1  IDiag  3:
 E=-0.894743199574890E-01 Delta-E=       -0.000000161027 Rises=F Damp=F
 DIIS: error= 8.95D-07 at cycle   4 NSaved=   4.
 NSaved= 4 IEnMin= 4 EnMin=-0.894743199574890E-01 IErMin= 4 ErrMin= 8.95D-07
 ErrMax= 8.95D-07  0.00D+00 EMaxC= 1.00D-01 BMatC= 3.23D-11 BMatP= 2.68D-08
 IDIUse=1 WtCom= 1.00D+00 WtEn= 0.00D+00
 Coeff-Com: -0.543D-01 0.212D+00-0.483D+00 0.133D+01
 Coeff:     -0.543D-01 0.212D+00-0.483D+00 0.133D+01
 Gap=     0.370 Goal=   None    Shift=    0.000
 RMSDP=1.08D-06 MaxDP=3.29D-06 DE=-1.61D-07 OVMax= 5.78D-06

 Cycle   5  Pass 1  IDiag  3:
 E=-0.894743201074988E-01 Delta-E=       -0.000000000150 Rises=F Damp=F
 DIIS: error= 4.06D-07 at cycle   5 NSaved=   5.
 NSaved= 5 IEnMin= 5 EnMin=-0.894743201074988E-01 IErMin= 5 ErrMin= 4.06D-07
 ErrMax= 4.06D-07  0.00D+00 EMaxC= 1.00D-01 BMatC= 2.98D-12 BMatP= 3.23D-11
 IDIUse=1 WtCom= 1.00D+00 WtEn= 0.00D+00
 Coeff-Com:  0.258D-01-0.101D+00 0.230D+00-0.712D+00 0.156D+01
 Coeff:      0.258D-01-0.101D+00 0.230D+00-0.712D+00 0.156D+01
 Gap=     0.370 Goal=   None    Shift=    0.000
 RMSDP=4.11D-07 MaxDP=2.30D-06 DE=-1.50D-10 OVMax= 2.27D-06

 Cycle   6  Pass 1  IDiag  3:
 E=-0.894743201245518E-01 Delta-E=       -0.000000000017 Rises=F Damp=F
 DIIS: error= 7.80D-08 at cycle   6 NSaved=   6.
 NSaved= 6 IEnMin= 6 EnMin=-0.894743201245518E-01 IErMin= 6 ErrMin= 7.80D-08
 ErrMax= 7.80D-08  0.00D+00 EMaxC= 1.00D-01 BMatC= 1.25D-13 BMatP= 2.98D-12
 IDIUse=1 WtCom= 1.00D+00 WtEn= 0.00D+00
 Coeff-Com: -0.992D-02 0.388D-01-0.884D-01 0.286D+00-0.763D+00 0.154D+01
 Coeff:     -0.992D-02 0.388D-01-0.884D-01 0.286D+00-0.763D+00 0.154D+01
 Gap=     0.370 Goal=   None    Shift=    0.000
 RMSDP=1.01D-07 MaxDP=5.54D-07 DE=-1.71D-11 OVMax= 4.91D-07

 Cycle   7  Pass 1  IDiag  3:
 E=-0.894743201253476E-01 Delta-E=       -0.000000000001 Rises=F Damp=F
 DIIS: error= 8.00D-09 at cycle   7 NSaved=   7.
 NSaved= 7 IEnMin= 7 EnMin=-0.894743201253476E-01 IErMin= 7 ErrMin= 8.00D-09
 ErrMax= 8.00D-09  0.00D+00 EMaxC= 1.00D-01 BMatC= 2.17D-15 BMatP= 1.25D-13
 IDIUse=1 WtCom= 1.00D+00 WtEn= 0.00D+00
 Coeff-Com:  0.295D-02-0.115D-01 0.263D-01-0.811D-01 0.221D+00-0.522D+00
 Coeff-Com:  0.136D+01
 Coeff:      0.295D-02-0.115D-01 0.263D-01-0.811D-01 0.221D+00-0.522D+00
 Coeff:      0.136D+01
 Gap=     0.370 Goal=   None    Shift=    0.000
 RMSDP=1.24D-08 MaxDP=5.06D-08 DE=-7.96D-13 OVMax= 5.52D-08

 Cycle   8  Pass 1  IDiag  3:
 E=-0.894743201253760E-01 Delta-E=        0.000000000000 Rises=F Damp=F
 DIIS: error= 7.91D-10 at cycle   8 NSaved=   8.
 NSaved= 8 IEnMin= 8 EnMin=-0.894743201253760E-01 IErMin= 8 ErrMin= 7.91D-10
 ErrMax= 7.91D-10  0.00D+00 EMaxC= 1.00D-01 BMatC= 2.84D-17 BMatP= 2.17D-15
 IDIUse=1 WtCom= 1.00D+00 WtEn= 0.00D+00
 Coeff-Com: -0.295D-03 0.115D-02-0.263D-02 0.787D-02-0.219D-01 0.590D-01
 Coeff-Com: -0.228D+00 0.119D+01
 Coeff:     -0.295D-03 0.115D-02-0.263D-02 0.787D-02-0.219D-01 0.590D-01
 Coeff:     -0.228D+00 0.119D+01
 Gap=     0.370 Goal=   None    Shift=    0.000
 RMSDP=1.18D-09 MaxDP=4.17D-09 DE=-2.84D-14 OVMax= 4.82D-09

 Cycle   9  Pass 2  IDiag  1:
 SCF Done:  E(RAM1) = -0.894743201254E-01 A.U. after    9 cycles
            NFock=  8  Conv=0.12D-08     -V/T= 0.9930
 KE=-1.277710003951D+01 PE=-1.084950976701D+02 EE= 5.558403777336D+01
 Leave Link  502 at Wed Mar 15 20:07:29 2017, MaxMem=   134217728 cpu:         0.1
 (Enter /n/sw/g09_D.01/g09/l801.exe)
 Range of M.O.s used for correlation:     1    15
 NBasis=    15 NAE=    11 NBE=    11 NFC=     0 NFV=     0
 NROrb=     15 NOA=    11 NOB=    11 NVA=     4 NVB=     4
 Leave Link  801 at Wed Mar 15 20:07:29 2017, MaxMem=   134217728 cpu:         0.0
 (Enter /n/sw/g09_D.01/g09/l1101.exe)
 Leave Link 1101 at Wed Mar 15 20:07:29 2017, MaxMem=   134217728 cpu:         0.1
 (Enter /n/sw/g09_D.01/g09/l1102.exe)
 Symmetrizing basis deriv contribution to polar:
 IMax=3 JMax=2 DiffMx= 0.00D+00
 Leave Link 1102 at Wed Mar 15 20:07:29 2017, MaxMem=   134217728 cpu:         0.0
 (Enter /n/sw/g09_D.01/g09/l1110.exe)
 Leave Link 1110 at Wed Mar 15 20:07:29 2017, MaxMem=   134217728 cpu:         0.0
 (Enter /n/sw/g09_D.01/g09/l1002.exe)
 Minotr:  Closed shell wavefunction.
 Leave Link 1002 at Wed Mar 15 20:07:29 2017, MaxMem=   134217728 cpu:         0.0
 (Enter /n/sw/g09_D.01/g09/l701.exe)
 Compute integral first derivatives.
 ... and contract with generalized density number  0.
 Leave Link  701 at Wed Mar 15 20:07:29 2017, MaxMem=   134217728 cpu:         0.1
 (Enter /n/sw/g09_D.01/g09/l702.exe)
 L702 exits ... SP integral derivatives will be done elsewhere.
 Leave Link  702 at Wed Mar 15 20:07:29 2017, MaxMem=   134217728 cpu:         0.0
 (Enter /n/sw/g09_D.01/g09/l703.exe)
 Compute integral first derivatives, UseDBF=F ICtDFT=           0.
 Integral derivatives from FoFJK, PRISM(SPDF).
 Calling FoFJK, ICntrl=      2147 FMM=F ISym2X=0 I1Cent= 0 IOpClX= 0 NMat=1 NMatS=1 NMatT=0.
 FoFJK:  IHMeth= 8 ICntrl=    2147 DoSepK=F KAlg= 0 I1Cent=   0 FoldK=F
 IRaf=         0 NMat=   1 IRICut=       1 DoRegI=T DoRafI=F ISym2E= 0.
 FoFCou: FMM=F IPFlag=           0 FMFlag=      100000 FMFlg1=         800
         NFxFlg=           0 DoJE=F BraDBF=F KetDBF=F FulRan=T
         wScrn=  0.000000 ICntrl=    2147 IOpCl=  0 I1Cent=           0 NGrid=           0
         NMat0=    1 NMatS0=      1 NMatT0=    0 NMatD0=    1 NMtDS0=    0 NMtDT0=    0
 Symmetry not used in FoFCou.
 Leave Link  703 at Wed Mar 15 20:07:29 2017, MaxMem=   134217728 cpu:         0.0
 (Enter /n/sw/g09_D.01/g09/l716.exe)
 Dipole        = 4.88295721D-02 3.79826145D-06 4.26717780D-06
 Polarizability= 0.00000000D+00 0.00000000D+00 0.00000000D+00
                 0.00000000D+00 0.00000000D+00 0.00000000D+00
 -------------------------------------------------------------------
 Center     Atomic                   Forces (Hartrees/Bohr)
 Number     Number              X              Y              Z
 -------------------------------------------------------------------
      1        6           0.000920787   -0.000000646   -0.000000285
      2        1          -0.000047541   -0.000048003   -0.000051641
      3        1          -0.000048328   -0.000020156    0.000068167
      4        1          -0.000048543    0.000068608   -0.000016382
      5       17          -0.000297274   -0.000000091   -0.000000062
      6       17          -0.000479102    0.000000288    0.000000203
 -------------------------------------------------------------------
 Cartesian Forces:  Max     0.000920787 RMS     0.000256873
 Z-matrix is all fixed cartesians, so copy forces.
 Leave Link  716 at Wed Mar 15 20:07:29 2017, MaxMem=   134217728 cpu:         0.0
 (Enter /n/sw/g09_D.01/g09/l123.exe)
 IRC-IRC-IRC-IRC-IRC-IRC-IRC-IRC-IRC-IRC-IRC-IRC-IRC-IRC-IRC-IRC-IRC-IRC
 Pt  1 Step number   1 out of a maximum of  20
 Using modified Bulirsch-Stoer corrector integration.
   Using distance weighted interpolants to fit PES.
 PreDWI: IReCr0= 2 IReCr1= 1 IReCr2= 1 IReCr3= 1
 Modified Bulirsch-Stoer Extrapolation Cycles:
    EPS =    0.000010000000000
    Cycle     1 NS=    48
    Cycle     2 NS=    64 Truncation Error =  0.000259970
    Cycle     3 NS=    96 Truncation Error =  0.000000214
 BS completed in    3 cycles and     208 integration steps.
 Maximum DWI energy   std dev =  0.000000165 at pt     3
 Maximum DWI gradient std dev =  0.802347312 at pt     1
 SUMMARY OF CORRECTOR INTEGRATION:
   Predictor End Point Energy =    -0.089474
   Old End Point Energy       =    -0.089474
   Corrected End Point Energy =    -0.089474
   Predictor End-Start Dist.  =     0.035843
   Old End-Start Dist.        =     0.035843
   New End-Start Dist.        =     0.035790
   New End-Old End Dist.      =     0.001737
 CORRECTOR INTEGRATION CONVERGENCE:
   Recorrection delta-x convergence threshold:    0.010000
   Delta-x Convergence Met
 Point Number:   1          Path Number:   1
                    CURRENT STRUCTURE
                Cartesian Coordinates (Ang):                
 ---------------------------------------------------------------------
 Center     Atomic                     Coordinates (Angstroms)
 Number     Number                        X           Y           Z
 ---------------------------------------------------------------------
      1          6                    0.004903    0.000003    0.000003
      2          1                   -0.000467   -0.752352   -0.798665
      3          1                   -0.000465   -0.315487    1.050895
      4          1                   -0.000465    1.067847   -0.252220
      5         17                    2.153148   -0.000001   -0.000001
      6         17                   -2.154790   -0.000001   -0.000001
 ---------------------------------------------------------------------
   CHANGE IN THE REACTION COORDINATE =    0.03579
   NET REACTION COORDINATE UP TO THIS POINT =    0.03579
  # OF POINTS ALONG THE PATH =   1
  # OF STEPS =   1

 Calculating another point on the path.
 Point Number  2 in REVERSE path direction.
 Using LQA Reaction Path Following.
   LQA: T_Est iteration completed in    3 iterations.
 IRC-IRC-IRC-IRC-IRC-IRC-IRC-IRC-IRC-IRC-IRC-IRC-IRC-IRC-IRC-IRC-IRC-IRC
 Leave Link  123 at Wed Mar 15 20:07:30 2017, MaxMem=   134217728 cpu:         0.0
 (Enter /n/sw/g09_D.01/g09/l202.exe)
                          Input orientation:                          
 ---------------------------------------------------------------------
 Center     Atomic      Atomic             Coordinates (Angstroms)
 Number     Number       Type             X           Y           Z
 ---------------------------------------------------------------------
      1          6           0        0.009969    0.000002    0.000003
      2          1           0       -0.001042   -0.752345   -0.798658
      3          1           0       -0.001042   -0.315484    1.050885
      4          1           0       -0.001042    1.067836   -0.252218
      5         17           0        2.152395   -0.000001   -0.000001
      6         17           0       -2.155726    0.000000   -0.000001
 ---------------------------------------------------------------------
                    Distance matrix (angstroms):
                    1          2          3          4          5
     1  C    0.000000
     2  H    1.097272   0.000000
     3  H    1.097272   1.900435   0.000000
     4  H    1.097272   1.900435   1.900435   0.000000
     5  Cl   2.142426   2.416850   2.416853   2.416853   0.000000
     6  Cl   2.165695   2.417962   2.417965   2.417965   4.308120
                    6
     6  Cl   0.000000
 Symmetry turned off by external request.
 This structure is nearly, but not quite of a higher symmetry.
 Consider Symm=Loose if the higher symmetry is desired.
 Stoichiometry    CH3Cl2(1-)
 Framework group  C1[X(CH3Cl2)]
 Deg. of freedom    12
 Full point group                 C1      NOp   1
 Rotational constants (GHZ):    138.8436065      1.5486719      1.5486719
 Leave Link  202 at Wed Mar 15 20:07:30 2017, MaxMem=   134217728 cpu:         0.0
 (Enter /n/sw/g09_D.01/g09/l301.exe)
 Standard basis: VSTO-6G (5D, 7F)
 Ernie: Thresh=  0.10000D-02 Tol=  0.10000D-05 Strict=F.
  NNHCO=     0 NNPyr=     0 NCTC=     0               EPep=         0.000000000
    EC=        31.364359774  ECS=         0.473018450   EG=         0.093081489
   EHC=         0.000000000  EAt=       -33.052414446  AtH=         0.613817032
 EPDDG=         0.000000000  ECC=        31.930459712 EAtT=        33.666231478
    15 basis functions,    90 primitive gaussians,    15 cartesian basis functions
    11 alpha electrons       11 beta electrons
       nuclear repulsion energy        65.5966911907 Hartrees.
 IExCor=    0 DFT=F Ex=HF Corr=None ExCW=0 ScaHFX=  1.000000
 ScaDFX=  1.000000  1.000000  1.000000  1.000000 ScalE2=  1.000000  1.000000
 IRadAn=      0 IRanWt=     -1 IRanGd=            0 ICorTp=0 IEmpDi=  4
 Integral buffers will be    131072 words long.
 Regular integral format.
 Two-electron integral symmetry is turned off.
 Leave Link  301 at Wed Mar 15 20:07:30 2017, MaxMem=   134217728 cpu:         0.1
 (Enter /n/sw/g09_D.01/g09/l302.exe)
 Do NDO integrals.
 NPDir=0 NMtPBC=     1 NCelOv=     1 NCel=       1 NClECP=     1 NCelD=      1
         NCelK=      1 NCelE2=     1 NClLst=     1 CellRange=     0.0.
 One-electron integrals computed using PRISM.
 NBasis=    15 RedAO= F EigKep=  0.00D+00  NBF=    15
 NBsUse=    15 1.00D-04 EigRej=  0.00D+00 NBFU=    15
 Leave Link  302 at Wed Mar 15 20:07:30 2017, MaxMem=   134217728 cpu:         0.1
 (Enter /n/sw/g09_D.01/g09/l303.exe)
 DipDrv:  MaxL=1.
 Leave Link  303 at Wed Mar 15 20:07:30 2017, MaxMem=   134217728 cpu:         0.0
 (Enter /n/sw/g09_D.01/g09/l401.exe)
 Initial guess from the checkpoint file:  "/scratch/ekwan_MeCl_ts_IRC_reverse/Gau-57520.chk"
 B after Tr=    -0.000028    0.000000    0.000000
         Rot=    1.000000    0.000000    0.000000    0.000000 Ang=   0.00 deg.
 Guess basis will be translated and rotated to current coordinates.
 JPrj=0 DoOrth=T DoCkMO=T.
 Leave Link  401 at Wed Mar 15 20:07:30 2017, MaxMem=   134217728 cpu:         0.1
 (Enter /n/sw/g09_D.01/g09/l502.exe)
 Closed shell SCF:
 Using DIIS extrapolation, IDIIS=  1040.
 Overlap will be assumed to be unity.
 Two-electron integral symmetry not used.
 Keep J ints in memory in canonical form, NReq=884770.
 IVT=       79028 IEndB=       79028 NGot=   134217728 MDV=   134138140
 LenX=   134138140 LenY=   134137258
 Requested convergence on RMS density matrix=1.00D-08 within 128 cycles.
 Requested convergence on MAX density matrix=1.00D-06.
 Requested convergence on             energy=1.00D-06.
 No special actions if energy rises.
 FoFCou: FMM=F IPFlag=           0 FMFlag=           0 FMFlg1=           0
         NFxFlg=           0 DoJE=F BraDBF=F KetDBF=F FulRan=T
         wScrn=  0.000000 ICntrl=     600 IOpCl=  2 I1Cent=           0 NGrid=           0
         NMat0=    1 NMatS0=     33 NMatT0=    0 NMatD0=    1 NMtDS0=    0 NMtDT0=    0
 Symmetry not used in FoFCou.

 Cycle   1  Pass 1  IDiag  1:
 E=-0.894605257449967E-01
 DIIS: error= 6.75D-04 at cycle   1 NSaved=   1.
 NSaved= 1 IEnMin= 1 EnMin=-0.894605257449967E-01 IErMin= 1 ErrMin= 6.75D-04
 ErrMax= 6.75D-04  0.00D+00 EMaxC= 1.00D-01 BMatC= 5.27D-06 BMatP= 5.27D-06
 IDIUse=3 WtCom= 9.93D-01 WtEn= 6.75D-03
 Coeff-Com:  0.100D+01
 Coeff-En:   0.100D+01
 Coeff:      0.100D+01
 RMSDP=3.99D-04 MaxDP=1.83D-03              OVMax= 0.00D+00

 Cycle   2  Pass 1  IDiag  3:
 E=-0.894849437881646E-01 Delta-E=       -0.000024418043 Rises=F Damp=F
 DIIS: error= 2.03D-04 at cycle   2 NSaved=   2.
 NSaved= 2 IEnMin= 2 EnMin=-0.894849437881646E-01 IErMin= 2 ErrMin= 2.03D-04
 ErrMax= 2.03D-04  0.00D+00 EMaxC= 1.00D-01 BMatC= 7.44D-07 BMatP= 5.27D-06
 IDIUse=3 WtCom= 9.98D-01 WtEn= 2.03D-03
 Coeff-Com: -0.473D+00 0.147D+01
 Coeff-En:   0.000D+00 0.100D+01
 Coeff:     -0.472D+00 0.147D+01
 Gap=     0.370 Goal=   None    Shift=    0.000
 RMSDP=2.33D-04 MaxDP=1.02D-03 DE=-2.44D-05 OVMax= 1.86D-03

 Cycle   3  Pass 1  IDiag  3:
 E=-0.894896511244383E-01 Delta-E=       -0.000004707336 Rises=F Damp=F
 DIIS: error= 3.12D-05 at cycle   3 NSaved=   3.
 NSaved= 3 IEnMin= 3 EnMin=-0.894896511244383E-01 IErMin= 3 ErrMin= 3.12D-05
 ErrMax= 3.12D-05  0.00D+00 EMaxC= 1.00D-01 BMatC= 2.74D-08 BMatP= 7.44D-07
 IDIUse=1 WtCom= 1.00D+00 WtEn= 0.00D+00
 Coeff-Com:  0.169D+00-0.650D+00 0.148D+01
 Coeff:      0.169D+00-0.650D+00 0.148D+01
 Gap=     0.370 Goal=   None    Shift=    0.000
 RMSDP=4.90D-05 MaxDP=1.88D-04 DE=-4.71D-06 OVMax= 4.06D-04

 Cycle   4  Pass 1  IDiag  3:
 E=-0.894898152244110E-01 Delta-E=       -0.000000164100 Rises=F Damp=F
 DIIS: error= 1.30D-06 at cycle   4 NSaved=   4.
 NSaved= 4 IEnMin= 4 EnMin=-0.894898152244110E-01 IErMin= 4 ErrMin= 1.30D-06
 ErrMax= 1.30D-06  0.00D+00 EMaxC= 1.00D-01 BMatC= 4.54D-11 BMatP= 2.74D-08
 IDIUse=1 WtCom= 1.00D+00 WtEn= 0.00D+00
 Coeff-Com: -0.815D-01 0.313D+00-0.717D+00 0.149D+01
 Coeff:     -0.815D-01 0.313D+00-0.717D+00 0.149D+01
 Gap=     0.370 Goal=   None    Shift=    0.000
 RMSDP=1.43D-06 MaxDP=7.06D-06 DE=-1.64D-07 OVMax= 6.60D-06

 Cycle   5  Pass 1  IDiag  3:
 E=-0.894898154573838E-01 Delta-E=       -0.000000000233 Rises=F Damp=F
 DIIS: error= 2.99D-07 at cycle   5 NSaved=   5.
 NSaved= 5 IEnMin= 5 EnMin=-0.894898154573838E-01 IErMin= 5 ErrMin= 2.99D-07
 ErrMax= 2.99D-07  0.00D+00 EMaxC= 1.00D-01 BMatC= 2.43D-12 BMatP= 4.54D-11
 IDIUse=1 WtCom= 1.00D+00 WtEn= 0.00D+00
 Coeff-Com:  0.253D-01-0.972D-01 0.223D+00-0.599D+00 0.145D+01
 Coeff:      0.253D-01-0.972D-01 0.223D+00-0.599D+00 0.145D+01
 Gap=     0.370 Goal=   None    Shift=    0.000
 RMSDP=3.93D-07 MaxDP=1.95D-06 DE=-2.33D-10 OVMax= 1.69D-06

 Cycle   6  Pass 1  IDiag  3:
 E=-0.894898154710546E-01 Delta-E=       -0.000000000014 Rises=F Damp=F
 DIIS: error= 3.47D-08 at cycle   6 NSaved=   6.
 NSaved= 6 IEnMin= 6 EnMin=-0.894898154710546E-01 IErMin= 6 ErrMin= 3.47D-08
 ErrMax= 3.47D-08  0.00D+00 EMaxC= 1.00D-01 BMatC= 5.62D-14 BMatP= 2.43D-12
 IDIUse=1 WtCom= 1.00D+00 WtEn= 0.00D+00
 Coeff-Com: -0.129D-01 0.497D-01-0.114D+00 0.309D+00-0.797D+00 0.157D+01
 Coeff:     -0.129D-01 0.497D-01-0.114D+00 0.309D+00-0.797D+00 0.157D+01
 Gap=     0.370 Goal=   None    Shift=    0.000
 RMSDP=6.55D-08 MaxDP=2.28D-07 DE=-1.37D-11 OVMax= 0.00D+00

 Cycle   7  Pass 1  IDiag  3:
 E=-0.894898154713957E-01 Delta-E=        0.000000000000 Rises=F Damp=F
 DIIS: error= 5.44D-09 at cycle   7 NSaved=   7.
 NSaved= 7 IEnMin= 7 EnMin=-0.894898154713957E-01 IErMin= 7 ErrMin= 5.44D-09
 ErrMax= 5.44D-09  0.00D+00 EMaxC= 1.00D-01 BMatC= 1.04D-15 BMatP= 5.62D-14
 IDIUse=1 WtCom= 1.00D+00 WtEn= 0.00D+00
 Coeff-Com:  0.177D-02-0.679D-02 0.156D-01-0.437D-01 0.114D+00-0.298D+00
 Coeff-Com:  0.122D+01
 Coeff:      0.177D-02-0.679D-02 0.156D-01-0.437D-01 0.114D+00-0.298D+00
 Coeff:      0.122D+01
 Gap=     0.370 Goal=   None    Shift=    0.000
 RMSDP=8.55D-09 MaxDP=2.96D-08 DE=-3.41D-13 OVMax= 4.01D-08

 Cycle   8  Pass 2  IDiag  1:
 SCF Done:  E(RAM1) = -0.894898154714E-01 A.U. after    8 cycles
            NFock=  7  Conv=0.85D-08     -V/T= 0.9930
 KE=-1.277692379311D+01 PE=-1.084914719636D+02 EE= 5.558221475052D+01
 Leave Link  502 at Wed Mar 15 20:07:30 2017, MaxMem=   134217728 cpu:         0.1
 (Enter /n/sw/g09_D.01/g09/l801.exe)
 Range of M.O.s used for correlation:     1    15
 NBasis=    15 NAE=    11 NBE=    11 NFC=     0 NFV=     0
 NROrb=     15 NOA=    11 NOB=    11 NVA=     4 NVB=     4
 Leave Link  801 at Wed Mar 15 20:07:30 2017, MaxMem=   134217728 cpu:         0.0
 (Enter /n/sw/g09_D.01/g09/l1101.exe)
 Leave Link 1101 at Wed Mar 15 20:07:30 2017, MaxMem=   134217728 cpu:         0.0
 (Enter /n/sw/g09_D.01/g09/l1102.exe)
 Symmetrizing basis deriv contribution to polar:
 IMax=3 JMax=2 DiffMx= 0.00D+00
 Leave Link 1102 at Wed Mar 15 20:07:30 2017, MaxMem=   134217728 cpu:         0.1
 (Enter /n/sw/g09_D.01/g09/l1110.exe)
 Leave Link 1110 at Wed Mar 15 20:07:30 2017, MaxMem=   134217728 cpu:         0.0
 (Enter /n/sw/g09_D.01/g09/l1002.exe)
 Minotr:  Closed shell wavefunction.
 Leave Link 1002 at Wed Mar 15 20:07:30 2017, MaxMem=   134217728 cpu:         0.0
 (Enter /n/sw/g09_D.01/g09/l701.exe)
 Compute integral first derivatives.
 ... and contract with generalized density number  0.
 Leave Link  701 at Wed Mar 15 20:07:30 2017, MaxMem=   134217728 cpu:         0.1
 (Enter /n/sw/g09_D.01/g09/l702.exe)
 L702 exits ... SP integral derivatives will be done elsewhere.
 Leave Link  702 at Wed Mar 15 20:07:31 2017, MaxMem=   134217728 cpu:         0.0
 (Enter /n/sw/g09_D.01/g09/l703.exe)
 Compute integral first derivatives, UseDBF=F ICtDFT=           0.
 Integral derivatives from FoFJK, PRISM(SPDF).
 Calling FoFJK, ICntrl=      2147 FMM=F ISym2X=0 I1Cent= 0 IOpClX= 0 NMat=1 NMatS=1 NMatT=0.
 FoFJK:  IHMeth= 8 ICntrl=    2147 DoSepK=F KAlg= 0 I1Cent=   0 FoldK=F
 IRaf=         0 NMat=   1 IRICut=       1 DoRegI=T DoRafI=F ISym2E= 0.
 FoFCou: FMM=F IPFlag=           0 FMFlag=      100000 FMFlg1=         800
         NFxFlg=           0 DoJE=F BraDBF=F KetDBF=F FulRan=T
         wScrn=  0.000000 ICntrl=    2147 IOpCl=  0 I1Cent=           0 NGrid=           0
         NMat0=    1 NMatS0=      1 NMatT0=    0 NMatD0=    1 NMtDS0=    0 NMtDT0=    0
 Symmetry not used in FoFCou.
 Leave Link  703 at Wed Mar 15 20:07:31 2017, MaxMem=   134217728 cpu:         0.0
 (Enter /n/sw/g09_D.01/g09/l716.exe)
 Dipole        = 1.00014002D-01 2.95939541D-06 3.40761889D-06
 Polarizability= 0.00000000D+00 0.00000000D+00 0.00000000D+00
                 0.00000000D+00 0.00000000D+00 0.00000000D+00
 -------------------------------------------------------------------
 Center     Atomic                   Forces (Hartrees/Bohr)
 Number     Number              X              Y              Z
 -------------------------------------------------------------------
      1        6           0.001850290   -0.000000025   -0.000000065
      2        1          -0.000015129    0.000012342    0.000013105
      3        1          -0.000015124    0.000005186   -0.000017323
      4        1          -0.000015121   -0.000017620    0.000004147
      5       17          -0.000840804    0.000000062    0.000000071
      6       17          -0.000964113    0.000000056    0.000000066
 -------------------------------------------------------------------
 Cartesian Forces:  Max     0.001850290 RMS     0.000530288
 Z-matrix is all fixed cartesians, so copy forces.
 Leave Link  716 at Wed Mar 15 20:07:31 2017, MaxMem=   134217728 cpu:         0.1
 (Enter /n/sw/g09_D.01/g09/l123.exe)
 IRC-IRC-IRC-IRC-IRC-IRC-IRC-IRC-IRC-IRC-IRC-IRC-IRC-IRC-IRC-IRC-IRC-IRC
 Pt  2 Step number   1 out of a maximum of  20
 Using modified Bulirsch-Stoer corrector integration.
   Using distance weighted interpolants to fit PES.
 PreDWI: IReCr0= 2 IReCr1= 1 IReCr2= 1 IReCr3= 1
 Modified Bulirsch-Stoer Extrapolation Cycles:
    EPS =    0.000010000000000
    Cycle     1 NS=    48
    Cycle     2 NS=    64 Truncation Error =  0.000007090
 BS completed in    2 cycles and     112 integration steps.
 Maximum DWI energy   std dev =  0.000000003 at pt    31
 Maximum DWI gradient std dev =  0.018651295 at pt    27
 SUMMARY OF CORRECTOR INTEGRATION:
   Predictor End Point Energy =    -0.089490
   Old End Point Energy       =    -0.089490
   Corrected End Point Energy =    -0.089490
   Predictor End-Start Dist.  =     0.035828
   Old End-Start Dist.        =     0.035828
   New End-Start Dist.        =     0.035825
   New End-Old End Dist.      =     0.000081
 CORRECTOR INTEGRATION CONVERGENCE:
   Recorrection delta-x convergence threshold:    0.010000
   Delta-x Convergence Met
 Point Number:   2          Path Number:   1
                    CURRENT STRUCTURE
                Cartesian Coordinates (Ang):                
 ---------------------------------------------------------------------
 Center     Atomic                     Coordinates (Angstroms)
 Number     Number                        X           Y           Z
 ---------------------------------------------------------------------
      1          6                    0.009969    0.000002    0.000003
      2          1                   -0.001034   -0.752329   -0.798641
      3          1                   -0.001034   -0.315477    1.050862
      4          1                   -0.001034    1.067814   -0.252213
      5         17                    2.152394   -0.000001   -0.000001
      6         17                   -2.155726    0.000000   -0.000001
 ---------------------------------------------------------------------
   CHANGE IN THE REACTION COORDINATE =    0.03583
   NET REACTION COORDINATE UP TO THIS POINT =    0.07162
  # OF POINTS ALONG THE PATH =   2
  # OF STEPS =   1

 Calculating another point on the path.
 Point Number  3 in REVERSE path direction.
 Using LQA Reaction Path Following.
   LQA: T_Est iteration completed in    3 iterations.
 IRC-IRC-IRC-IRC-IRC-IRC-IRC-IRC-IRC-IRC-IRC-IRC-IRC-IRC-IRC-IRC-IRC-IRC
 Leave Link  123 at Wed Mar 15 20:07:31 2017, MaxMem=   134217728 cpu:         0.0
 (Enter /n/sw/g09_D.01/g09/l202.exe)
                          Input orientation:                          
 ---------------------------------------------------------------------
 Center     Atomic      Atomic             Coordinates (Angstroms)
 Number     Number       Type             X           Y           Z
 ---------------------------------------------------------------------
      1          6           0        0.015038    0.000002    0.000002
      2          1           0       -0.001552   -0.752306   -0.798617
      3          1           0       -0.001552   -0.315468    1.050830
      4          1           0       -0.001552    1.067781   -0.252206
      5         17           0        2.151592   -0.000001   -0.000001
      6         17           0       -2.156618    0.000000    0.000000
 ---------------------------------------------------------------------
                    Distance matrix (angstroms):
                    1          2          3          4          5
     1  C    0.000000
     2  H    1.097285   0.000000
     3  H    1.097285   1.900337   0.000000
     4  H    1.097285   1.900337   1.900336   0.000000
     5  Cl   2.136554   2.416564   2.416566   2.416566   0.000000
     6  Cl   2.171656   2.418276   2.418279   2.418279   4.308210
                    6
     6  Cl   0.000000
 Symmetry turned off by external request.
 This structure is nearly, but not quite of a higher symmetry.
 Consider Symm=Loose if the higher symmetry is desired.
 Stoichiometry    CH3Cl2(1-)
 Framework group  C1[X(CH3Cl2)]
 Deg. of freedom    12
 Full point group                 C1      NOp   1
 Rotational constants (GHZ):    138.8580248      1.5486006      1.5486006
 Leave Link  202 at Wed Mar 15 20:07:31 2017, MaxMem=   134217728 cpu:         0.0
 (Enter /n/sw/g09_D.01/g09/l301.exe)
 Standard basis: VSTO-6G (5D, 7F)
 Ernie: Thresh=  0.10000D-02 Tol=  0.10000D-05 Strict=F.
  NNHCO=     0 NNPyr=     0 NCTC=     0               EPep=         0.000000000
    EC=        31.364262405  ECS=         0.473048878   EG=         0.093102353
   EHC=         0.000000000  EAt=       -33.052414446  AtH=         0.613817032
 EPDDG=         0.000000000  ECC=        31.930413636 EAtT=        33.666231478
    15 basis functions,    90 primitive gaussians,    15 cartesian basis functions
    11 alpha electrons       11 beta electrons
       nuclear repulsion energy        65.5966451142 Hartrees.
 IExCor=    0 DFT=F Ex=HF Corr=None ExCW=0 ScaHFX=  1.000000
 ScaDFX=  1.000000  1.000000  1.000000  1.000000 ScalE2=  1.000000  1.000000
 IRadAn=      0 IRanWt=     -1 IRanGd=            0 ICorTp=0 IEmpDi=  4
 Integral buffers will be    131072 words long.
 Regular integral format.
 Two-electron integral symmetry is turned off.
 Leave Link  301 at Wed Mar 15 20:07:31 2017, MaxMem=   134217728 cpu:         0.1
 (Enter /n/sw/g09_D.01/g09/l302.exe)
 Do NDO integrals.
 NPDir=0 NMtPBC=     1 NCelOv=     1 NCel=       1 NClECP=     1 NCelD=      1
         NCelK=      1 NCelE2=     1 NClLst=     1 CellRange=     0.0.
 One-electron integrals computed using PRISM.
 NBasis=    15 RedAO= F EigKep=  0.00D+00  NBF=    15
 NBsUse=    15 1.00D-04 EigRej=  0.00D+00 NBFU=    15
 Leave Link  302 at Wed Mar 15 20:07:31 2017, MaxMem=   134217728 cpu:         0.1
 (Enter /n/sw/g09_D.01/g09/l303.exe)
 DipDrv:  MaxL=1.
 Leave Link  303 at Wed Mar 15 20:07:31 2017, MaxMem=   134217728 cpu:         0.0
 (Enter /n/sw/g09_D.01/g09/l401.exe)
 Initial guess from the checkpoint file:  "/scratch/ekwan_MeCl_ts_IRC_reverse/Gau-57520.chk"
 B after Tr=     0.000003    0.000000    0.000000
         Rot=    1.000000    0.000000    0.000000    0.000000 Ang=   0.00 deg.
 Guess basis will be translated and rotated to current coordinates.
 JPrj=0 DoOrth=T DoCkMO=T.
 Leave Link  401 at Wed Mar 15 20:07:31 2017, MaxMem=   134217728 cpu:         0.1
 (Enter /n/sw/g09_D.01/g09/l502.exe)
 Closed shell SCF:
 Using DIIS extrapolation, IDIIS=  1040.
 Overlap will be assumed to be unity.
 Two-electron integral symmetry not used.
 Keep J ints in memory in canonical form, NReq=884770.
 IVT=       79028 IEndB=       79028 NGot=   134217728 MDV=   134138140
 LenX=   134138140 LenY=   134137258
 Requested convergence on RMS density matrix=1.00D-08 within 128 cycles.
 Requested convergence on MAX density matrix=1.00D-06.
 Requested convergence on             energy=1.00D-06.
 No special actions if energy rises.
 FoFCou: FMM=F IPFlag=           0 FMFlag=           0 FMFlg1=           0
         NFxFlg=           0 DoJE=F BraDBF=F KetDBF=F FulRan=T
         wScrn=  0.000000 ICntrl=     600 IOpCl=  2 I1Cent=           0 NGrid=           0
         NMat0=    1 NMatS0=     33 NMatT0=    0 NMatD0=    1 NMtDS0=    0 NMtDT0=    0
 Symmetry not used in FoFCou.

 Cycle   1  Pass 1  IDiag  1:
 E=-0.894881901306661E-01
 DIIS: error= 6.49D-04 at cycle   1 NSaved=   1.
 NSaved= 1 IEnMin= 1 EnMin=-0.894881901306661E-01 IErMin= 1 ErrMin= 6.49D-04
 ErrMax= 6.49D-04  0.00D+00 EMaxC= 1.00D-01 BMatC= 4.94D-06 BMatP= 4.94D-06
 IDIUse=3 WtCom= 9.94D-01 WtEn= 6.49D-03
 Coeff-Com:  0.100D+01
 Coeff-En:   0.100D+01
 Coeff:      0.100D+01
 RMSDP=3.90D-04 MaxDP=1.83D-03              OVMax= 0.00D+00

 Cycle   2  Pass 1  IDiag  3:
 E=-0.895111916280342E-01 Delta-E=       -0.000023001497 Rises=F Damp=F
 DIIS: error= 1.94D-04 at cycle   2 NSaved=   2.
 NSaved= 2 IEnMin= 2 EnMin=-0.895111916280342E-01 IErMin= 2 ErrMin= 1.94D-04
 ErrMax= 1.94D-04  0.00D+00 EMaxC= 1.00D-01 BMatC= 6.88D-07 BMatP= 4.94D-06
 IDIUse=3 WtCom= 9.98D-01 WtEn= 1.94D-03
 Coeff-Com: -0.463D+00 0.146D+01
 Coeff-En:   0.000D+00 0.100D+01
 Coeff:     -0.462D+00 0.146D+01
 Gap=     0.370 Goal=   None    Shift=    0.000
 RMSDP=2.24D-04 MaxDP=1.01D-03 DE=-2.30D-05 OVMax= 1.81D-03

 Cycle   3  Pass 1  IDiag  3:
 E=-0.895155632951230E-01 Delta-E=       -0.000004371667 Rises=F Damp=F
 DIIS: error= 3.02D-05 at cycle   3 NSaved=   3.
 NSaved= 3 IEnMin= 3 EnMin=-0.895155632951230E-01 IErMin= 3 ErrMin= 3.02D-05
 ErrMax= 3.02D-05  0.00D+00 EMaxC= 1.00D-01 BMatC= 2.67D-08 BMatP= 6.88D-07
 IDIUse=1 WtCom= 1.00D+00 WtEn= 0.00D+00
 Coeff-Com:  0.168D+00-0.656D+00 0.149D+01
 Coeff:      0.168D+00-0.656D+00 0.149D+01
 Gap=     0.370 Goal=   None    Shift=    0.000
 RMSDP=4.86D-05 MaxDP=1.88D-04 DE=-4.37D-06 OVMax= 4.02D-04

 Cycle   4  Pass 1  IDiag  3:
 E=-0.895157238255990E-01 Delta-E=       -0.000000160530 Rises=F Damp=F
 DIIS: error= 8.88D-07 at cycle   4 NSaved=   4.
 NSaved= 4 IEnMin= 4 EnMin=-0.895157238255990E-01 IErMin= 4 ErrMin= 8.88D-07
 ErrMax= 8.88D-07  0.00D+00 EMaxC= 1.00D-01 BMatC= 3.02D-11 BMatP= 2.67D-08
 IDIUse=1 WtCom= 1.00D+00 WtEn= 0.00D+00
 Coeff-Com: -0.619D-01 0.242D+00-0.550D+00 0.137D+01
 Coeff:     -0.619D-01 0.242D+00-0.550D+00 0.137D+01
 Gap=     0.370 Goal=   None    Shift=    0.000
 RMSDP=1.07D-06 MaxDP=3.52D-06 DE=-1.61D-07 OVMax= 5.58D-06

 Cycle   5  Pass 1  IDiag  3:
 E=-0.895157239679492E-01 Delta-E=       -0.000000000142 Rises=F Damp=F
 DIIS: error= 1.95D-07 at cycle   5 NSaved=   5.
 NSaved= 5 IEnMin= 5 EnMin=-0.895157239679492E-01 IErMin= 5 ErrMin= 1.95D-07
 ErrMax= 1.95D-07  0.00D+00 EMaxC= 1.00D-01 BMatC= 2.24D-12 BMatP= 3.02D-11
 IDIUse=1 WtCom= 1.00D+00 WtEn= 0.00D+00
 Coeff-Com:  0.255D-01-0.996D-01 0.227D+00-0.669D+00 0.152D+01
 Coeff:      0.255D-01-0.996D-01 0.227D+00-0.669D+00 0.152D+01
 Gap=     0.370 Goal=   None    Shift=    0.000
 RMSDP=3.97D-07 MaxDP=1.08D-06 DE=-1.42D-10 OVMax= 2.44D-06

 Cycle   6  Pass 1  IDiag  3:
 E=-0.895157239815489E-01 Delta-E=       -0.000000000014 Rises=F Damp=F
 DIIS: error= 3.87D-08 at cycle   6 NSaved=   6.
 NSaved= 6 IEnMin= 6 EnMin=-0.895157239815489E-01 IErMin= 6 ErrMin= 3.87D-08
 ErrMax= 3.87D-08  0.00D+00 EMaxC= 1.00D-01 BMatC= 5.04D-14 BMatP= 2.24D-12
 IDIUse=1 WtCom= 1.00D+00 WtEn= 0.00D+00
 Coeff-Com: -0.950D-02 0.371D-01-0.847D-01 0.256D+00-0.655D+00 0.146D+01
 Coeff:     -0.950D-02 0.371D-01-0.847D-01 0.256D+00-0.655D+00 0.146D+01
 Gap=     0.370 Goal=   None    Shift=    0.000
 RMSDP=6.35D-08 MaxDP=2.25D-07 DE=-1.36D-11 OVMax= 4.91D-07

 Cycle   7  Pass 1  IDiag  3:
 E=-0.895157239818900E-01 Delta-E=        0.000000000000 Rises=F Damp=F
 DIIS: error= 8.70D-09 at cycle   7 NSaved=   7.
 NSaved= 7 IEnMin= 7 EnMin=-0.895157239818900E-01 IErMin= 7 ErrMin= 8.70D-09
 ErrMax= 8.70D-09  0.00D+00 EMaxC= 1.00D-01 BMatC= 1.85D-15 BMatP= 5.04D-14
 IDIUse=1 WtCom= 1.00D+00 WtEn= 0.00D+00
 Coeff-Com:  0.301D-02-0.118D-01 0.268D-01-0.826D-01 0.221D+00-0.618D+00
 Coeff-Com:  0.146D+01
 Coeff:      0.301D-02-0.118D-01 0.268D-01-0.826D-01 0.221D+00-0.618D+00
 Coeff:      0.146D+01
 Gap=     0.370 Goal=   None    Shift=    0.000
 RMSDP=1.19D-08 MaxDP=5.42D-08 DE=-3.41D-13 OVMax= 7.76D-08

 Cycle   8  Pass 1  IDiag  3:
 E=-0.895157239817763E-01 Delta-E=        0.000000000000 Rises=F Damp=F
 DIIS: error= 1.17D-09 at cycle   8 NSaved=   8.
 NSaved= 8 IEnMin= 7 EnMin=-0.895157239818900E-01 IErMin= 8 ErrMin= 1.17D-09
 ErrMax= 1.17D-09  0.00D+00 EMaxC= 1.00D-01 BMatC= 4.57D-17 BMatP= 1.85D-15
 IDIUse=1 WtCom= 1.00D+00 WtEn= 0.00D+00
 Coeff-Com: -0.195D-03 0.763D-03-0.174D-02 0.529D-02-0.164D-01 0.782D-01
 Coeff-Com: -0.348D+00 0.128D+01
 Coeff:     -0.195D-03 0.763D-03-0.174D-02 0.529D-02-0.164D-01 0.782D-01
 Coeff:     -0.348D+00 0.128D+01
 Gap=     0.370 Goal=   None    Shift=    0.000
 RMSDP=1.68D-09 MaxDP=6.90D-09 DE= 1.14D-13 OVMax= 7.85D-09

 Cycle   9  Pass 2  IDiag  1:
 SCF Done:  E(RAM1) = -0.895157239818E-01 A.U. after    9 cycles
            NFock=  8  Conv=0.17D-08     -V/T= 0.9930
 KE=-1.277699576692D+01 PE=-1.084911719452D+02 EE= 5.558200687391D+01
 Leave Link  502 at Wed Mar 15 20:07:31 2017, MaxMem=   134217728 cpu:         0.1
 (Enter /n/sw/g09_D.01/g09/l801.exe)
 Range of M.O.s used for correlation:     1    15
 NBasis=    15 NAE=    11 NBE=    11 NFC=     0 NFV=     0
 NROrb=     15 NOA=    11 NOB=    11 NVA=     4 NVB=     4
 Leave Link  801 at Wed Mar 15 20:07:31 2017, MaxMem=   134217728 cpu:         0.1
 (Enter /n/sw/g09_D.01/g09/l1101.exe)
 Leave Link 1101 at Wed Mar 15 20:07:31 2017, MaxMem=   134217728 cpu:         0.1
 (Enter /n/sw/g09_D.01/g09/l1102.exe)
 Symmetrizing basis deriv contribution to polar:
 IMax=3 JMax=2 DiffMx= 0.00D+00
 Leave Link 1102 at Wed Mar 15 20:07:31 2017, MaxMem=   134217728 cpu:         0.0
 (Enter /n/sw/g09_D.01/g09/l1110.exe)
 Leave Link 1110 at Wed Mar 15 20:07:32 2017, MaxMem=   134217728 cpu:         0.1
 (Enter /n/sw/g09_D.01/g09/l1002.exe)
 Minotr:  Closed shell wavefunction.
 Leave Link 1002 at Wed Mar 15 20:07:32 2017, MaxMem=   134217728 cpu:         0.1
 (Enter /n/sw/g09_D.01/g09/l701.exe)
 Compute integral first derivatives.
 ... and contract with generalized density number  0.
 Leave Link  701 at Wed Mar 15 20:07:32 2017, MaxMem=   134217728 cpu:         0.1
 (Enter /n/sw/g09_D.01/g09/l702.exe)
 L702 exits ... SP integral derivatives will be done elsewhere.
 Leave Link  702 at Wed Mar 15 20:07:32 2017, MaxMem=   134217728 cpu:         0.1
 (Enter /n/sw/g09_D.01/g09/l703.exe)
 Compute integral first derivatives, UseDBF=F ICtDFT=           0.
 Integral derivatives from FoFJK, PRISM(SPDF).
 Calling FoFJK, ICntrl=      2147 FMM=F ISym2X=0 I1Cent= 0 IOpClX= 0 NMat=1 NMatS=1 NMatT=0.
 FoFJK:  IHMeth= 8 ICntrl=    2147 DoSepK=F KAlg= 0 I1Cent=   0 FoldK=F
 IRaf=         0 NMat=   1 IRICut=       1 DoRegI=T DoRafI=F ISym2E= 0.
 FoFCou: FMM=F IPFlag=           0 FMFlag=      100000 FMFlg1=         800
         NFxFlg=           0 DoJE=F BraDBF=F KetDBF=F FulRan=T
         wScrn=  0.000000 ICntrl=    2147 IOpCl=  0 I1Cent=           0 NGrid=           0
         NMat0=    1 NMatS0=      1 NMatT0=    0 NMatD0=    1 NMtDS0=    0 NMtDT0=    0
 Symmetry not used in FoFCou.
 Leave Link  703 at Wed Mar 15 20:07:32 2017, MaxMem=   134217728 cpu:         0.1
 (Enter /n/sw/g09_D.01/g09/l716.exe)
 Dipole        = 1.50803404D-01 2.67570791D-06 3.09888555D-06
 Polarizability= 0.00000000D+00 0.00000000D+00 0.00000000D+00
                 0.00000000D+00 0.00000000D+00 0.00000000D+00
 -------------------------------------------------------------------
 Center     Atomic                   Forces (Hartrees/Bohr)
 Number     Number              X              Y              Z
 -------------------------------------------------------------------
      1        6           0.002787506   -0.000000121   -0.000000120
      2        1          -0.000024056    0.000011416    0.000012117
      3        1          -0.000024062    0.000004775   -0.000015933
      4        1          -0.000024066   -0.000016179    0.000003811
      5       17          -0.001298078    0.000000054    0.000000064
      6       17          -0.001417244    0.000000054    0.000000061
 -------------------------------------------------------------------
 Cartesian Forces:  Max     0.002787506 RMS     0.000798135
 Z-matrix is all fixed cartesians, so copy forces.
 Leave Link  716 at Wed Mar 15 20:07:32 2017, MaxMem=   134217728 cpu:         0.1
 (Enter /n/sw/g09_D.01/g09/l123.exe)
 IRC-IRC-IRC-IRC-IRC-IRC-IRC-IRC-IRC-IRC-IRC-IRC-IRC-IRC-IRC-IRC-IRC-IRC
 Pt  3 Step number   1 out of a maximum of  20
 Using modified Bulirsch-Stoer corrector integration.
   Using distance weighted interpolants to fit PES.
 PreDWI: IReCr0= 2 IReCr1= 1 IReCr2= 1 IReCr3= 1
 Modified Bulirsch-Stoer Extrapolation Cycles:
    EPS =    0.000010000000000
    Cycle     1 NS=    48
    Cycle     2 NS=    64 Truncation Error =  0.000001742
 BS completed in    2 cycles and     112 integration steps.
 Maximum DWI energy   std dev =  0.000000001 at pt    50
 Maximum DWI gradient std dev =  0.009617229 at pt    28
 SUMMARY OF CORRECTOR INTEGRATION:
   Predictor End Point Energy =    -0.089516
   Old End Point Energy       =    -0.089516
   Corrected End Point Energy =    -0.089516
   Predictor End-Start Dist.  =     0.035833
   Old End-Start Dist.        =     0.035833
   New End-Start Dist.        =     0.035833
   New End-Old End Dist.      =     0.000066
 CORRECTOR INTEGRATION CONVERGENCE:
   Recorrection delta-x convergence threshold:    0.010000
   Delta-x Convergence Met
 Point Number:   3          Path Number:   1
                    CURRENT STRUCTURE
                Cartesian Coordinates (Ang):                
 ---------------------------------------------------------------------
 Center     Atomic                     Coordinates (Angstroms)
 Number     Number                        X           Y           Z
 ---------------------------------------------------------------------
      1          6                    0.015038    0.000002    0.000002
      2          1                   -0.001553   -0.752293   -0.798602
      3          1                   -0.001553   -0.315462    1.050811
      4          1                   -0.001553    1.067762   -0.252201
      5         17                    2.151593   -0.000001   -0.000001
      6         17                   -2.156619    0.000000    0.000000
 ---------------------------------------------------------------------
   CHANGE IN THE REACTION COORDINATE =    0.03583
   NET REACTION COORDINATE UP TO THIS POINT =    0.10745
  # OF POINTS ALONG THE PATH =   3
  # OF STEPS =   1

 Calculating another point on the path.
 Point Number  4 in REVERSE path direction.
 Using LQA Reaction Path Following.
   LQA: T_Est iteration completed in    3 iterations.
 IRC-IRC-IRC-IRC-IRC-IRC-IRC-IRC-IRC-IRC-IRC-IRC-IRC-IRC-IRC-IRC-IRC-IRC
 Leave Link  123 at Wed Mar 15 20:07:32 2017, MaxMem=   134217728 cpu:         0.0
 (Enter /n/sw/g09_D.01/g09/l202.exe)
                          Input orientation:                          
 ---------------------------------------------------------------------
 Center     Atomic      Atomic             Coordinates (Angstroms)
 Number     Number       Type             X           Y           Z
 ---------------------------------------------------------------------
      1          6           0        0.020108    0.000002    0.000002
      2          1           0       -0.002073   -0.752256   -0.798564
      3          1           0       -0.002073   -0.315447    1.050760
      4          1           0       -0.002073    1.067709   -0.252189
      5         17           0        2.150778    0.000000   -0.000001
      6         17           0       -2.157499    0.000000    0.000000
 ---------------------------------------------------------------------
                    Distance matrix (angstroms):
                    1          2          3          4          5
     1  C    0.000000
     2  H    1.097311   0.000000
     3  H    1.097311   1.900210   0.000000
     4  H    1.097311   1.900210   1.900210   0.000000
     5  Cl   2.130670   2.416269   2.416272   2.416272   0.000000
     6  Cl   2.177606   2.418564   2.418566   2.418566   4.308276
                    6
     6  Cl   0.000000
 Symmetry turned off by external request.
 This structure is nearly, but not quite of a higher symmetry.
 Consider Symm=Loose if the higher symmetry is desired.
 Stoichiometry    CH3Cl2(1-)
 Framework group  C1[X(CH3Cl2)]
 Deg. of freedom    12
 Full point group                 C1      NOp   1
 Rotational constants (GHZ):    138.8765169      1.5485424      1.5485424
 Leave Link  202 at Wed Mar 15 20:07:32 2017, MaxMem=   134217728 cpu:         0.0
 (Enter /n/sw/g09_D.01/g09/l301.exe)
 Standard basis: VSTO-6G (5D, 7F)
 Ernie: Thresh=  0.10000D-02 Tol=  0.10000D-05 Strict=F.
  NNHCO=     0 NNPyr=     0 NCTC=     0               EPep=         0.000000000
    EC=        31.364388909  ECS=         0.473089589   EG=         0.093136453
   EHC=         0.000000000  EAt=       -33.052414446  AtH=         0.613817032
 EPDDG=         0.000000000  ECC=        31.930614951 EAtT=        33.666231478
    15 basis functions,    90 primitive gaussians,    15 cartesian basis functions
    11 alpha electrons       11 beta electrons
       nuclear repulsion energy        65.5968464289 Hartrees.
 IExCor=    0 DFT=F Ex=HF Corr=None ExCW=0 ScaHFX=  1.000000
 ScaDFX=  1.000000  1.000000  1.000000  1.000000 ScalE2=  1.000000  1.000000
 IRadAn=      0 IRanWt=     -1 IRanGd=            0 ICorTp=0 IEmpDi=  4
 Integral buffers will be    131072 words long.
 Regular integral format.
 Two-electron integral symmetry is turned off.
 Leave Link  301 at Wed Mar 15 20:07:32 2017, MaxMem=   134217728 cpu:         0.1
 (Enter /n/sw/g09_D.01/g09/l302.exe)
 Do NDO integrals.
 NPDir=0 NMtPBC=     1 NCelOv=     1 NCel=       1 NClECP=     1 NCelD=      1
         NCelK=      1 NCelE2=     1 NClLst=     1 CellRange=     0.0.
 One-electron integrals computed using PRISM.
 NBasis=    15 RedAO= F EigKep=  0.00D+00  NBF=    15
 NBsUse=    15 1.00D-04 EigRej=  0.00D+00 NBFU=    15
 Leave Link  302 at Wed Mar 15 20:07:32 2017, MaxMem=   134217728 cpu:         0.1
 (Enter /n/sw/g09_D.01/g09/l303.exe)
[...]
 Symmetry not used in FoFCou.

 Cycle   1  Pass 1  IDiag  1:
 E=-0.103884904184355    
 DIIS: error= 4.70D-05 at cycle   1 NSaved=   1.
 NSaved= 1 IEnMin= 1 EnMin=-0.103884904184355     IErMin= 1 ErrMin= 4.70D-05
 ErrMax= 4.70D-05  0.00D+00 EMaxC= 1.00D-01 BMatC= 4.08D-08 BMatP= 4.08D-08
 IDIUse=1 WtCom= 1.00D+00 WtEn= 0.00D+00
 Coeff-Com:  0.100D+01
 Coeff:      0.100D+01
 RMSDP=4.56D-05 MaxDP=3.21D-04              OVMax= 0.00D+00

 Cycle   2  Pass 1  IDiag  3:
 E=-0.103885154339480     Delta-E=       -0.000000250155 Rises=F Damp=F
 DIIS: error= 2.11D-05 at cycle   2 NSaved=   2.
 NSaved= 2 IEnMin= 2 EnMin=-0.103885154339480     IErMin= 2 ErrMin= 2.11D-05
 ErrMax= 2.11D-05  0.00D+00 EMaxC= 1.00D-01 BMatC= 5.63D-09 BMatP= 4.08D-08
 IDIUse=1 WtCom= 1.00D+00 WtEn= 0.00D+00
 Coeff-Com: -0.490D+00 0.149D+01
 Coeff:     -0.490D+00 0.149D+01
 Gap=     0.328 Goal=   None    Shift=    0.000
 RMSDP=2.79D-05 MaxDP=2.06D-04 DE=-2.50D-07 OVMax= 2.75D-04

 Cycle   3  Pass 1  IDiag  3:
 E=-0.103885202883234     Delta-E=       -0.000000048544 Rises=F Damp=F
 DIIS: error= 3.71D-06 at cycle   3 NSaved=   3.
 NSaved= 3 IEnMin= 3 EnMin=-0.103885202883234     IErMin= 3 ErrMin= 3.71D-06
 ErrMax= 3.71D-06  0.00D+00 EMaxC= 1.00D-01 BMatC= 1.88D-10 BMatP= 5.63D-09
 IDIUse=1 WtCom= 1.00D+00 WtEn= 0.00D+00
 Coeff-Com:  0.188D+00-0.668D+00 0.148D+01
 Coeff:      0.188D+00-0.668D+00 0.148D+01
 Gap=     0.328 Goal=   None    Shift=    0.000
 RMSDP=5.25D-06 MaxDP=3.93D-05 DE=-4.85D-08 OVMax= 4.91D-05

 Cycle   4  Pass 1  IDiag  3:
 E=-0.103885204382891     Delta-E=       -0.000000001500 Rises=F Damp=F
 DIIS: error= 5.39D-07 at cycle   4 NSaved=   4.
 NSaved= 4 IEnMin= 4 EnMin=-0.103885204382891     IErMin= 4 ErrMin= 5.39D-07
 ErrMax= 5.39D-07  0.00D+00 EMaxC= 1.00D-01 BMatC= 5.51D-12 BMatP= 1.88D-10
 IDIUse=1 WtCom= 1.00D+00 WtEn= 0.00D+00
 Coeff-Com: -0.106D+00 0.380D+00-0.887D+00 0.161D+01
 Coeff:     -0.106D+00 0.380D+00-0.887D+00 0.161D+01
 Gap=     0.328 Goal=   None    Shift=    0.000
 RMSDP=6.34D-07 MaxDP=3.55D-06 DE=-1.50D-09 OVMax= 3.58D-06

 Cycle   5  Pass 1  IDiag  3:
 E=-0.103885204416983     Delta-E=       -0.000000000034 Rises=F Damp=F
 DIIS: error= 7.77D-08 at cycle   5 NSaved=   5.
 NSaved= 5 IEnMin= 5 EnMin=-0.103885204416983     IErMin= 5 ErrMin= 7.77D-08
 ErrMax= 7.77D-08  0.00D+00 EMaxC= 1.00D-01 BMatC= 1.44D-13 BMatP= 5.51D-12
 IDIUse=1 WtCom= 1.00D+00 WtEn= 0.00D+00
 Coeff-Com:  0.353D-01-0.127D+00 0.302D+00-0.654D+00 0.144D+01
 Coeff:      0.353D-01-0.127D+00 0.302D+00-0.654D+00 0.144D+01
 Gap=     0.328 Goal=   None    Shift=    0.000
 RMSDP=9.32D-08 MaxDP=5.59D-07 DE=-3.41D-11 OVMax= 4.11D-07

 Cycle   6  Pass 1  IDiag  3:
 E=-0.103885204417765     Delta-E=       -0.000000000001 Rises=F Damp=F
 DIIS: error= 5.99D-09 at cycle   6 NSaved=   6.
 NSaved= 6 IEnMin= 6 EnMin=-0.103885204417765     IErMin= 6 ErrMin= 5.99D-09
 ErrMax= 5.99D-09  0.00D+00 EMaxC= 1.00D-01 BMatC= 1.23D-15 BMatP= 1.44D-13
 IDIUse=1 WtCom= 1.00D+00 WtEn= 0.00D+00
 Coeff-Com: -0.148D-01 0.533D-01-0.127D+00 0.276D+00-0.643D+00 0.145D+01
 Coeff:     -0.148D-01 0.533D-01-0.127D+00 0.276D+00-0.643D+00 0.145D+01
 Gap=     0.328 Goal=   None    Shift=    0.000
 RMSDP=7.67D-09 MaxDP=2.87D-08 DE=-7.82D-13 OVMax= 4.18D-08

 Cycle   7  Pass 2  IDiag  1:
 SCF Done:  E(RAM1) = -0.103885204418     A.U. after    7 cycles
            NFock=  6  Conv=0.77D-08     -V/T= 0.9919
 KE=-1.280532901246D+01 PE=-1.061538659577D+02 EE= 5.429123840636D+01
 Leave Link  502 at Wed Mar 15 20:10:23 2017, MaxMem=   134217728 cpu:         0.1
 (Enter /n/sw/g09_D.01/g09/l801.exe)
 Range of M.O.s used for correlation:     1    15
 NBasis=    15 NAE=    11 NBE=    11 NFC=     0 NFV=     0
 NROrb=     15 NOA=    11 NOB=    11 NVA=     4 NVB=     4
 Leave Link  801 at Wed Mar 15 20:10:23 2017, MaxMem=   134217728 cpu:         0.1
 (Enter /n/sw/g09_D.01/g09/l1101.exe)
 Leave Link 1101 at Wed Mar 15 20:10:23 2017, MaxMem=   134217728 cpu:         0.1
 (Enter /n/sw/g09_D.01/g09/l1102.exe)
 Symmetrizing basis deriv contribution to polar:
 IMax=3 JMax=2 DiffMx= 0.00D+00
 Leave Link 1102 at Wed Mar 15 20:10:23 2017, MaxMem=   134217728 cpu:         0.0
 (Enter /n/sw/g09_D.01/g09/l1110.exe)
 Leave Link 1110 at Wed Mar 15 20:10:23 2017, MaxMem=   134217728 cpu:         0.1
 (Enter /n/sw/g09_D.01/g09/l1002.exe)
 Minotr:  Closed shell wavefunction.
 Leave Link 1002 at Wed Mar 15 20:10:23 2017, MaxMem=   134217728 cpu:         0.1
 (Enter /n/sw/g09_D.01/g09/l701.exe)
 Compute integral first derivatives.
 ... and contract with generalized density number  0.
 Leave Link  701 at Wed Mar 15 20:10:23 2017, MaxMem=   134217728 cpu:         0.1
 (Enter /n/sw/g09_D.01/g09/l702.exe)
 L702 exits ... SP integral derivatives will be done elsewhere.
 Leave Link  702 at Wed Mar 15 20:10:23 2017, MaxMem=   134217728 cpu:         0.0
 (Enter /n/sw/g09_D.01/g09/l703.exe)
 Compute integral first derivatives, UseDBF=F ICtDFT=           0.
 Integral derivatives from FoFJK, PRISM(SPDF).
 Calling FoFJK, ICntrl=      2147 FMM=F ISym2X=0 I1Cent= 0 IOpClX= 0 NMat=1 NMatS=1 NMatT=0.
 FoFJK:  IHMeth= 8 ICntrl=    2147 DoSepK=F KAlg= 0 I1Cent=   0 FoldK=F
 IRaf=         0 NMat=   1 IRICut=       1 DoRegI=T DoRafI=F ISym2E= 0.
 FoFCou: FMM=F IPFlag=           0 FMFlag=      100000 FMFlg1=         800
         NFxFlg=           0 DoJE=F BraDBF=F KetDBF=F FulRan=T
         wScrn=  0.000000 ICntrl=    2147 IOpCl=  0 I1Cent=           0 NGrid=           0
         NMat0=    1 NMatS0=      1 NMatT0=    0 NMatD0=    1 NMtDS0=    0 NMtDT0=    0
 Symmetry not used in FoFCou.
 Leave Link  703 at Wed Mar 15 20:10:23 2017, MaxMem=   134217728 cpu:         0.1
 (Enter /n/sw/g09_D.01/g09/l716.exe)
 Dipole        = 3.27453920D+00 3.49629492D-07 4.54731605D-07
 Polarizability= 0.00000000D+00 0.00000000D+00 0.00000000D+00
                 0.00000000D+00 0.00000000D+00 0.00000000D+00
 -------------------------------------------------------------------
 Center     Atomic                   Forces (Hartrees/Bohr)
 Number     Number              X              Y              Z
 -------------------------------------------------------------------
      1        6           0.000157645   -0.000000002   -0.000000002
      2        1           0.000011708    0.000000260    0.000000276
      3        1           0.000011708    0.000000109   -0.000000363
      4        1           0.000011708   -0.000000369    0.000000087
      5       17           0.000430287    0.000000001    0.000000001
      6       17          -0.000623056    0.000000001    0.000000002
 -------------------------------------------------------------------
 Cartesian Forces:  Max     0.000623056 RMS     0.000182363
 Z-matrix is all fixed cartesians, so copy forces.
 Leave Link  716 at Wed Mar 15 20:10:24 2017, MaxMem=   134217728 cpu:         0.1
 (Enter /n/sw/g09_D.01/g09/l123.exe)
 IRC-IRC-IRC-IRC-IRC-IRC-IRC-IRC-IRC-IRC-IRC-IRC-IRC-IRC-IRC-IRC-IRC-IRC
 Pt133 Step number   1 out of a maximum of  20
 Using modified Bulirsch-Stoer corrector integration.
   Using distance weighted interpolants to fit PES.
 PreDWI: IReCr0= 2 IReCr1= 1 IReCr2= 1 IReCr3= 1
 Modified Bulirsch-Stoer Extrapolation Cycles:
    EPS =    0.000010000000000
    Cycle     1 NS=    48
    Cycle     2 NS=    64 Truncation Error =  0.000000008
 BS completed in    2 cycles and     112 integration steps.
 Maximum DWI energy   std dev =  0.000000001 at pt    47
 Maximum DWI gradient std dev =  0.001656766 at pt    39
 SUMMARY OF CORRECTOR INTEGRATION:
   Predictor End Point Energy =    -0.103885
   Old End Point Energy       =    -0.103885
   Corrected End Point Energy =    -0.103885
   Predictor End-Start Dist.  =     0.035838
   Old End-Start Dist.        =     0.035838
   New End-Start Dist.        =     0.035838
   New End-Old End Dist.      =     0.000013
 CORRECTOR INTEGRATION CONVERGENCE:
   Recorrection delta-x convergence threshold:    0.010000
   Delta-x Convergence Met
 Point Number: 133          Path Number:   1
                    CURRENT STRUCTURE
                Cartesian Coordinates (Ang):                
 ---------------------------------------------------------------------
 Center     Atomic                     Coordinates (Angstroms)
 Number     Number                        X           Y           Z
 ---------------------------------------------------------------------
      1          6                    0.449252    0.000000    0.000000
      2          1                    0.115471   -0.725338   -0.769989
      3          1                    0.115472   -0.304160    1.013157
      4          1                    0.115472    1.029500   -0.243166
      5         17                    2.234556    0.000000    0.000000
      6         17                   -2.398704    0.000000    0.000000
 ---------------------------------------------------------------------
   CHANGE IN THE REACTION COORDINATE =    0.03584
   NET REACTION COORDINATE UP TO THIS POINT =    4.76607
  # OF POINTS ALONG THE PATH = 133
  # OF STEPS =   1

 PES minimum detected on this side of the pathway.
    Magnitude of the gradient =      0.0001374
 Calculation of REVERSE path complete.
 Reaction path calculation complete.
 
 Energies reported relative to the TS energy of          -0.089469
 --------------------------------------------------------------------------
    Summary of reaction path following
 --------------------------------------------------------------------------
                        Energy    RxCoord
   1                   -0.01442  -4.76607
   2                   -0.01441  -4.73023
   3                   -0.01440  -4.69439
   4                   -0.01440  -4.65856
   5                   -0.01439  -4.62272
   6                   -0.01438  -4.58688
   7                   -0.01437  -4.55105
   8                   -0.01436  -4.51521
   9                   -0.01435  -4.47937
  10                   -0.01433  -4.44353
  11                   -0.01432  -4.40770
  12                   -0.01430  -4.37186
  13                   -0.01429  -4.33602
  14                   -0.01427  -4.30019
  15                   -0.01425  -4.26435
  16                   -0.01423  -4.22851
  17                   -0.01421  -4.19268
  18                   -0.01419  -4.15684
  19                   -0.01416  -4.12100
  20                   -0.01414  -4.08517
  21                   -0.01411  -4.04933
  22                   -0.01409  -4.01349
  23                   -0.01406  -3.97766
  24                   -0.01403  -3.94182
  25                   -0.01400  -3.90598
  26                   -0.01397  -3.87015
  27                   -0.01393  -3.83431
  28                   -0.01390  -3.79847
  29                   -0.01386  -3.76264
  30                   -0.01383  -3.72680
  31                   -0.01379  -3.69096
  32                   -0.01375  -3.65513
  33                   -0.01370  -3.61929
  34                   -0.01366  -3.58345
  35                   -0.01362  -3.54762
  36                   -0.01357  -3.51178
  37                   -0.01352  -3.47594
  38                   -0.01348  -3.44011
  39                   -0.01342  -3.40427
  40                   -0.01337  -3.36843
  41                   -0.01332  -3.33260
  42                   -0.01326  -3.29676
  43                   -0.01321  -3.26092
  44                   -0.01315  -3.22509
  45                   -0.01309  -3.18925
  46                   -0.01303  -3.15342
  47                   -0.01297  -3.11758
  48                   -0.01290  -3.08174
  49                   -0.01283  -3.04591
  50                   -0.01277  -3.01007
  51                   -0.01270  -2.97423
  52                   -0.01263  -2.93840
  53                   -0.01255  -2.90256
  54                   -0.01248  -2.86672
  55                   -0.01240  -2.83089
  56                   -0.01232  -2.79505
  57                   -0.01224  -2.75922
  58                   -0.01216  -2.72338
  59                   -0.01207  -2.68754
  60                   -0.01199  -2.65171
  61                   -0.01190  -2.61587
  62                   -0.01181  -2.58004
  63                   -0.01172  -2.54420
  64                   -0.01162  -2.50837
  65                   -0.01153  -2.47253
  66                   -0.01143  -2.43670
  67                   -0.01132  -2.40087
  68                   -0.01122  -2.36503
  69                   -0.01111  -2.32920
  70                   -0.01100  -2.29337
  71                   -0.01088  -2.25754
  72                   -0.01076  -2.22171
  73                   -0.01064  -2.18588
  74                   -0.01051  -2.15005
  75                   -0.01037  -2.11422
  76                   -0.01023  -2.07839
  77                   -0.01008  -2.04256
  78                   -0.00992  -2.00673
  79                   -0.00976  -1.97090
  80                   -0.00959  -1.93506
  81                   -0.00941  -1.89923
  82                   -0.00923  -1.86340
  83                   -0.00904  -1.82756
  84                   -0.00884  -1.79173
  85                   -0.00863  -1.75589
  86                   -0.00842  -1.72006
  87                   -0.00821  -1.68422
  88                   -0.00799  -1.64838
  89                   -0.00776  -1.61255
  90                   -0.00753  -1.57671
  91                   -0.00730  -1.54088
  92                   -0.00706  -1.50504
  93                   -0.00682  -1.46921
  94                   -0.00658  -1.43337
  95                   -0.00633  -1.39753
  96                   -0.00609  -1.36170
  97                   -0.00584  -1.32586
  98                   -0.00559  -1.29003
  99                   -0.00535  -1.25419
 100                   -0.00510  -1.21835
 101                   -0.00486  -1.18252
 102                   -0.00461  -1.14668
 103                   -0.00437  -1.11085
 104                   -0.00413  -1.07501
 105                   -0.00390  -1.03917
 106                   -0.00366  -1.00334
 107                   -0.00343  -0.96750
 108                   -0.00321  -0.93167
 109                   -0.00299  -0.89583
 110                   -0.00278  -0.85999
 111                   -0.00257  -0.82416
 112                   -0.00237  -0.78832
 113                   -0.00217  -0.75249
 114                   -0.00198  -0.71665
 115                   -0.00180  -0.68081
 116                   -0.00162  -0.64498
 117                   -0.00145  -0.60914
 118                   -0.00129  -0.57331
 119                   -0.00114  -0.53747
 120                   -0.00100  -0.50163
 121                   -0.00086  -0.46580
 122                   -0.00074  -0.42996
 123                   -0.00062  -0.39413
 124                   -0.00052  -0.35829
 125                   -0.00042  -0.32246
 126                   -0.00033  -0.28662
 127                   -0.00025  -0.25079
 128                   -0.00019  -0.21495
 129                   -0.00013  -0.17912
 130                   -0.00008  -0.14328
 131                   -0.00005  -0.10745
 132                   -0.00002  -0.07162
 133                   -0.00001  -0.03579
 134                    0.00000   0.00000
 --------------------------------------------------------------------------
 
 Total number of points:                  133
 Total number of gradient calculations:   134
 Total number of Hessian calculations:     14
 IRC-IRC-IRC-IRC-IRC-IRC-IRC-IRC-IRC-IRC-IRC-IRC-IRC-IRC-IRC-IRC-IRC-IRC
 Leave Link  123 at Wed Mar 15 20:10:24 2017, MaxMem=   134217728 cpu:         0.0
 (Enter /n/sw/g09_D.01/g09/l202.exe)
                          Input orientation:                          
 ---------------------------------------------------------------------
 Center     Atomic      Atomic             Coordinates (Angstroms)
 Number     Number       Type             X           Y           Z
 ---------------------------------------------------------------------
      1          6           0        0.449252    0.000000    0.000000
      2          1           0        0.115468   -0.725337   -0.769988
      3          1           0        0.115468   -0.304160    1.013156
      4          1           0        0.115468    1.029499   -0.243166
      5         17           0        2.234556    0.000000    0.000000
      6         17           0       -2.398704    0.000000    0.000000
 ---------------------------------------------------------------------
                    Distance matrix (angstroms):
                    1          2          3          4          5
     1  C    0.000000
     2  H    1.109238   0.000000
     3  H    1.109238   1.832209   0.000000
     4  H    1.109238   1.832209   1.832209   0.000000
     5  Cl   1.785304   2.368445   2.368445   2.368445   0.000000
     6  Cl   2.847957   2.727647   2.727648   2.727648   4.633261
                    6
     6  Cl   0.000000
 Symmetry turned off by external request.
 This structure is nearly, but not quite of a higher symmetry.
 Consider Symm=Loose if the higher symmetry is desired.
 Stoichiometry    CH3Cl2(1-)
 Framework group  C1[X(CH3Cl2)]
 Deg. of freedom    12
 Full point group                 C1      NOp   1
 Rotational constants (GHZ):    149.3764075      1.3300674      1.3300674
 Leave Link  202 at Wed Mar 15 20:10:24 2017, MaxMem=   134217728 cpu:         0.0
 (Enter /n/sw/g09_D.01/g09/l601.exe)
 Copying SCF densities to generalized density rwf, IOpCl= 0 IROHF=0.

 **********************************************************************

            Population analysis using the SCF density.

 **********************************************************************

 Alpha  occ. eigenvalues --   -1.21691  -0.94339  -0.89634  -0.39733  -0.39733
 Alpha  occ. eigenvalues --   -0.38942  -0.27984  -0.27984  -0.13026  -0.13026
 Alpha  occ. eigenvalues --   -0.12744
 Alpha virt. eigenvalues --    0.20007   0.30914   0.30914   0.32704
          Condensed to atoms (all electrons):
               1          2          3          4          5          6
     1  C    4.099736   0.000000   0.000000   0.000000   0.000000   0.000000
     2  H    0.000000   0.883293   0.000000   0.000000   0.000000   0.000000
     3  H    0.000000   0.000000   0.883293   0.000000   0.000000   0.000000
     4  H    0.000000   0.000000   0.000000   0.883293   0.000000   0.000000
     5  Cl   0.000000   0.000000   0.000000   0.000000   7.272446   0.000000
     6  Cl   0.000000   0.000000   0.000000   0.000000   0.000000   7.977940
 Mulliken charges:
               1
     1  C   -0.099736
     2  H    0.116707
     3  H    0.116707
     4  H    0.116707
     5  Cl  -0.272446
     6  Cl  -0.977940
 Sum of Mulliken charges =  -1.00000
 Mulliken charges with hydrogens summed into heavy atoms:
               1
     1  C    0.250386
     5  Cl  -0.272446
     6  Cl  -0.977940
 APT charges:
               1
     1  C   -0.099736
     2  H    0.116707
     3  H    0.116707
     4  H    0.116707
     5  Cl  -0.272446
     6  Cl  -0.977940
 Sum of APT charges =  -1.00000
 APT charges with hydrogens summed into heavy atoms:
               1
     1  C    0.250386
     5  Cl  -0.272446
     6  Cl  -0.977940
 Charge=             -1.0000 electrons
 Dipole moment (field-independent basis, Debye):
    X=              8.3230    Y=              0.0000    Z=              0.0000  Tot=              8.3230
 N-N= 6.456407135933D+01 E-N=-1.061538660194D+02  KE=-1.280532901246D+01
  Exact polarizability:   0.000   0.000   0.000   0.000   0.000   0.000
 Approx polarizability:  22.353   0.000   4.681   0.000   0.000   4.681
 Leave Link  601 at Wed Mar 15 20:10:24 2017, MaxMem=   134217728 cpu:         0.1
 (Enter /n/sw/g09_D.01/g09/l9999.exe)

 This type of calculation cannot be archived.


 OLD AGE AND TREACHERY WILL ALWAYS PREVAIL OVER YOUTH AND SKILL.
 Job cpu time:       0 days  0 hours  2 minutes 39.0 seconds.
 File lengths (MBytes):  RWF=      5 Int=      0 D2E=      0 Chk=      2 Scr=      1
 Normal termination of Gaussian 09 at Wed Mar 15 20:10:24 2017.
