 Entering Gaussian System, Link 0=g09
 Input=MeCl_pdt.gjf
 Output=MeCl_pdt.out
 Initial command:
 /n/sw/g09_D.01/g09/l1.exe "/scratch/Gau-27575.inp" -scrdir="/scratch/"
 Entering Link 1 = /n/sw/g09_D.01/g09/l1.exe PID=     27576.
  
 Copyright (c) 1988,1990,1992,1993,1995,1998,2003,2009,2013,
            Gaussian, Inc.  All Rights Reserved.
  
 This is part of the Gaussian(R) 09 program.  It is based on
 the Gaussian(R) 03 system (copyright 2003, Gaussian, Inc.),
 the Gaussian(R) 98 system (copyright 1998, Gaussian, Inc.),
 the Gaussian(R) 94 system (copyright 1995, Gaussian, Inc.),
 the Gaussian 92(TM) system (copyright 1992, Gaussian, Inc.),
 the Gaussian 90(TM) system (copyright 1990, Gaussian, Inc.),
 the Gaussian 88(TM) system (copyright 1988, Gaussian, Inc.),
 the Gaussian 86(TM) system (copyright 1986, Carnegie Mellon
 University), and the Gaussian 82(TM) system (copyright 1983,
 Carnegie Mellon University). Gaussian is a federally registered
 trademark of Gaussian, Inc.
  
 This software contains proprietary and confidential information,
 including trade secrets, belonging to Gaussian, Inc.
  
 This software is provided under written license and may be
 used, copied, transmitted, or stored only in accord with that
 written license.
  
 The following legend is applicable only to US Government
 contracts under FAR:
  
                    RESTRICTED RIGHTS LEGEND
  
 Use, reproduction and disclosure by the US Government is
 subject to restrictions as set forth in subparagraphs (a)
 and (c) of the Commercial Computer Software - Restricted
 Rights clause in FAR 52.227-19.
  
 Gaussian, Inc.
 340 Quinnipiac St., Bldg. 40, Wallingford CT 06492
  
  
 ---------------------------------------------------------------
 Warning -- This program may not be used in any manner that
 competes with the business of Gaussian, Inc. or will provide
 assistance to any competitor of Gaussian, Inc.  The licensee
 of this program is prohibited from giving any competitor of
 Gaussian, Inc. access to this program.  By using this program,
 the user acknowledges that Gaussian, Inc. is engaged in the
 business of creating and licensing software in the field of
 computational chemistry and represents and warrants to the
 licensee that it is not a competitor of Gaussian, Inc. and that
 it will not use this program in any manner prohibited above.
 ---------------------------------------------------------------
  

 Cite this work as:
 Gaussian 09, Revision D.01,
 M. J. Frisch, G. W. Trucks, H. B. Schlegel, G. E. Scuseria, 
 M. A. Robb, J. R. Cheeseman, G. Scalmani, V. Barone, B. Mennucci, 
 G. A. Petersson, H. Nakatsuji, M. Caricato, X. Li, H. P. Hratchian, 
 A. F. Izmaylov, J. Bloino, G. Zheng, J. L. Sonnenberg, M. Hada, 
 M. Ehara, K. Toyota, R. Fukuda, J. Hasegawa, M. Ishida, T. Nakajima, 
 Y. Honda, O. Kitao, H. Nakai, T. Vreven, J. A. Montgomery, Jr., 
 J. E. Peralta, F. Ogliaro, M. Bearpark, J. J. Heyd, E. Brothers, 
 K. N. Kudin, V. N. Staroverov, T. Keith, R. Kobayashi, J. Normand, 
 K. Raghavachari, A. Rendell, J. C. Burant, S. S. Iyengar, J. Tomasi, 
 M. Cossi, N. Rega, J. M. Millam, M. Klene, J. E. Knox, J. B. Cross, 
 V. Bakken, C. Adamo, J. Jaramillo, R. Gomperts, R. E. Stratmann, 
 O. Yazyev, A. J. Austin, R. Cammi, C. Pomelli, J. W. Ochterski, 
 R. L. Martin, K. Morokuma, V. G. Zakrzewski, G. A. Voth, 
 P. Salvador, J. J. Dannenberg, S. Dapprich, A. D. Daniels, 
 O. Farkas, J. B. Foresman, J. V. Ortiz, J. Cioslowski, 
 and D. J. Fox, Gaussian, Inc., Wallingford CT, 2013.
 
 ******************************************
 Gaussian 09:  EM64L-G09RevD.01 24-Apr-2013
                 3-Mar-2017 
 ******************************************
 -----------------------
 #p opt freq=noraman am1
 -----------------------
 1/14=-1,18=20,19=15,26=1,38=1/1,3;
 2/9=110,12=2,17=6,18=5,40=1/2;
 3/5=2,16=1,25=1,41=700000,71=1/1,2,3;
 4/35=1/1;
 5/5=2,35=1,38=5/2;
 6/7=2,8=2,9=2,10=2,28=1/1;
 7//1,2,3,16;
 1/14=-1,18=20,19=15,26=1/3(2);
 2/9=110/2;
 99//99;
 2/9=110/2;
 3/5=2,16=1,25=1,41=700000,71=1,135=20/1,2,3;
 4/5=5,16=3,35=1/1;
 5/5=2,35=1,38=5/2;
 7//1,2,3,16;
 1/14=-1,18=20,19=15,26=1/3(-5);
 2/9=110/2;
 6/7=2,8=2,9=2,10=2,19=2,28=1/1;
 99/9=1/99;
 Leave Link    1 at Fri Mar  3 14:34:05 2017, MaxMem=           0 cpu:         0.0
 (Enter /n/sw/g09_D.01/g09/l101.exe)
 -------------------
 Title Card Required
 -------------------
 Symbolic Z-matrix:
 Charge = -1 Multiplicity = 1
 C                     0.55662   0.        0. 
 H                    -0.05758  -0.75229  -0.79859 
 H                    -0.05756  -0.31546   1.0508 
 H                    -0.05756   1.06775  -0.2522 
 Cl                    2.06109  0.        0. 
 Cl                   -2.2467   0.        0. 
 
 Add virtual bond connecting atoms Cl6        and H2         Dist= 4.63D+00.
 Add virtual bond connecting atoms Cl6        and H3         Dist= 4.63D+00.
 Add virtual bond connecting atoms Cl6        and H4         Dist= 4.63D+00.
 NAtoms=      6 NQM=        6 NQMF=       0 NMMI=      0 NMMIF=      0
                NMic=       0 NMicF=      0.
                    Isotopes and Nuclear Properties:
 (Nuclear quadrupole moments (NQMom) in fm**2, nuclear magnetic moments (NMagM)
  in nuclear magnetons)

  Atom         1           2           3           4           5           6
 IAtWgt=          12           1           1           1          35          35
 AtmWgt=  12.0000000   1.0078250   1.0078250   1.0078250  34.9688527  34.9688527
 NucSpn=           0           1           1           1           3           3
 AtZEff=   0.0000000   0.0000000   0.0000000   0.0000000   0.0000000   0.0000000
 NQMom=    0.0000000   0.0000000   0.0000000   0.0000000  -8.1650000  -8.1650000
 NMagM=    0.0000000   2.7928460   2.7928460   2.7928460   0.8218740   0.8218740
 AtZNuc=   6.0000000   1.0000000   1.0000000   1.0000000  17.0000000  17.0000000
 Leave Link  101 at Fri Mar  3 14:34:05 2017, MaxMem=    33554432 cpu:         0.1
 (Enter /n/sw/g09_D.01/g09/l103.exe)

 GradGradGradGradGradGradGradGradGradGradGradGradGradGradGradGradGradGrad
 Berny optimization.
 Initialization pass.
                           ----------------------------
                           !    Initial Parameters    !
                           ! (Angstroms and Degrees)  !
 --------------------------                            --------------------------
 ! Name  Definition              Value          Derivative Info.                !
 --------------------------------------------------------------------------------
 ! R1    R(1,2)                  1.2574         estimate D2E/DX2                !
 ! R2    R(1,3)                  1.2573         estimate D2E/DX2                !
 ! R3    R(1,4)                  1.2573         estimate D2E/DX2                !
 ! R4    R(1,5)                  1.5045         estimate D2E/DX2                !
 ! R5    R(2,6)                  2.4487         estimate D2E/DX2                !
 ! R6    R(3,6)                  2.4487         estimate D2E/DX2                !
 ! R7    R(4,6)                  2.4487         estimate D2E/DX2                !
 ! A1    A(2,1,3)               98.1678         estimate D2E/DX2                !
 ! A2    A(2,1,4)               98.1683         estimate D2E/DX2                !
 ! A3    A(2,1,5)              119.2409         estimate D2E/DX2                !
 ! A4    A(3,1,4)               98.1684         estimate D2E/DX2                !
 ! A5    A(3,1,5)              119.2408         estimate D2E/DX2                !
 ! A6    A(4,1,5)              119.2407         estimate D2E/DX2                !
 ! A7    A(1,2,6)               92.6225         estimate D2E/DX2                !
 ! A8    A(1,3,6)               92.622          estimate D2E/DX2                !
 ! A9    A(1,4,6)               92.6219         estimate D2E/DX2                !
 ! A10   A(2,6,3)               45.663          estimate D2E/DX2                !
 ! A11   A(2,6,4)               45.6632         estimate D2E/DX2                !
 ! A12   A(3,6,4)               45.663          estimate D2E/DX2                !
 ! D1    D(3,1,2,6)             49.7665         estimate D2E/DX2                !
 ! D2    D(4,1,2,6)            -49.7663         estimate D2E/DX2                !
 ! D3    D(5,1,2,6)            180.0            estimate D2E/DX2                !
 ! D4    D(2,1,3,6)            -49.7662         estimate D2E/DX2                !
 ! D5    D(4,1,3,6)             49.7666         estimate D2E/DX2                !
 ! D6    D(5,1,3,6)           -179.9997         estimate D2E/DX2                !
 ! D7    D(2,1,4,6)             49.7658         estimate D2E/DX2                !
 ! D8    D(3,1,4,6)            -49.7665         estimate D2E/DX2                !
 ! D9    D(5,1,4,6)            179.9997         estimate D2E/DX2                !
 ! D10   D(1,2,6,3)            -32.8544         estimate D2E/DX2                !
 ! D11   D(1,2,6,4)             32.8541         estimate D2E/DX2                !
 ! D12   D(1,3,6,2)             32.8546         estimate D2E/DX2                !
 ! D13   D(1,3,6,4)            -32.8544         estimate D2E/DX2                !
 ! D14   D(1,4,6,2)            -32.8543         estimate D2E/DX2                !
 ! D15   D(1,4,6,3)             32.8544         estimate D2E/DX2                !
 --------------------------------------------------------------------------------
 Trust Radius=3.00D-01 FncErr=1.00D-07 GrdErr=1.00D-07
 Number of steps in this run=     44 maximum allowed number of steps=    100.
 GradGradGradGradGradGradGradGradGradGradGradGradGradGradGradGradGradGrad

 Leave Link  103 at Fri Mar  3 14:34:05 2017, MaxMem=    33554432 cpu:         0.0
 (Enter /n/sw/g09_D.01/g09/l202.exe)
                          Input orientation:                          
 ---------------------------------------------------------------------
 Center     Atomic      Atomic             Coordinates (Angstroms)
 Number     Number       Type             X           Y           Z
 ---------------------------------------------------------------------
      1          6           0        0.556624    0.000003    0.000003
      2          1           0       -0.057575   -0.752288   -0.798592
      3          1           0       -0.057564   -0.315461    1.050801
      4          1           0       -0.057561    1.067753   -0.252197
      5         17           0        2.061091   -0.000001   -0.000001
      6         17           0       -2.246705   -0.000001   -0.000001
 ---------------------------------------------------------------------
                    Distance matrix (angstroms):
                    1          2          3          4          5
     1  C    0.000000
     2  H    1.257353   0.000000
     3  H    1.257347   1.900282   0.000000
     4  H    1.257346   1.900289   1.900285   0.000000
     5  Cl   1.504467   2.385881   2.385875   2.385873   0.000000
     6  Cl   2.803329   2.448668   2.448681   2.448684   4.307796
                    6
     6  Cl   0.000000
 This structure is nearly, but not quite of a higher symmetry.
 Consider Symm=Loose if the higher symmetry is desired.
 Stoichiometry    CH3Cl2(1-)
 Framework group  C1[X(CH3Cl2)]
 Deg. of freedom    12
 Full point group                 C1      NOp   1
 Largest Abelian subgroup         C1      NOp   1
 Largest concise Abelian subgroup C1      NOp   1
                         Standard orientation:                         
 ---------------------------------------------------------------------
 Center     Atomic      Atomic             Coordinates (Angstroms)
 Number     Number       Type             X           Y           Z
 ---------------------------------------------------------------------
      1          6           0        0.000328   -0.013439   -0.556192
      2          1           0       -0.780210   -0.769757    0.076011
      3          1           0        1.058085   -0.288475    0.065441
      4          1           0       -0.277964    1.062430    0.032007
      5         17           0        0.001203   -0.049795   -2.060219
      6         17           0       -0.001313    0.054291    2.246319
 ---------------------------------------------------------------------
 Rotational constants (GHZ):    138.8655089      1.5286241      1.5286240
 Leave Link  202 at Fri Mar  3 14:34:05 2017, MaxMem=    33554432 cpu:         0.0
 (Enter /n/sw/g09_D.01/g09/l301.exe)
 Standard basis: VSTO-6G (5D, 7F)
 Ernie: Thresh=  0.10000D-02 Tol=  0.10000D-05 Strict=F.
  NNHCO=     0 NNPyr=     0 NCTC=     0               EPep=         0.000000000
    EC=        31.742121709  ECS=         0.507441473   EG=         0.130100626
   EHC=         0.000000000  EAt=       -33.052414446  AtH=         0.613817032
 EPDDG=         0.000000000  ECC=        32.379663808 EAtT=        33.666231478
 There are    15 symmetry adapted cartesian basis functions of A   symmetry.
 There are    15 symmetry adapted basis functions of A   symmetry.
    15 basis functions,    90 primitive gaussians,    15 cartesian basis functions
    11 alpha electrons       11 beta electrons
       nuclear repulsion energy        66.0458952867 Hartrees.



 Warning!  Cl atom    5 may be hypervalent but has no d functions.



 IExCor=    0 DFT=F Ex=HF Corr=None ExCW=0 ScaHFX=  1.000000
 ScaDFX=  1.000000  1.000000  1.000000  1.000000 ScalE2=  1.000000  1.000000
 IRadAn=      0 IRanWt=     -1 IRanGd=            0 ICorTp=0 IEmpDi=  4
 Integral buffers will be    131072 words long.
 Regular integral format.
 Two-electron integral symmetry is turned off.
 Leave Link  301 at Fri Mar  3 14:34:05 2017, MaxMem=    33554432 cpu:         0.0
 (Enter /n/sw/g09_D.01/g09/l302.exe)
 Do NDO integrals.
 NPDir=0 NMtPBC=     1 NCelOv=     1 NCel=       1 NClECP=     1 NCelD=      1
         NCelK=      1 NCelE2=     1 NClLst=     1 CellRange=     0.0.
 One-electron integrals computed using PRISM.
 NBasis=    15 RedAO= F EigKep=  0.00D+00  NBF=    15
 NBsUse=    15 1.00D-04 EigRej=  0.00D+00 NBFU=    15
 Leave Link  302 at Fri Mar  3 14:34:06 2017, MaxMem=    33554432 cpu:         0.1
 (Enter /n/sw/g09_D.01/g09/l303.exe)
 DipDrv:  MaxL=1.
 Leave Link  303 at Fri Mar  3 14:34:06 2017, MaxMem=    33554432 cpu:         0.0
 (Enter /n/sw/g09_D.01/g09/l401.exe)
 Simple Huckel Guess.
 JPrj=0 DoOrth=F DoCkMO=F.
 Leave Link  401 at Fri Mar  3 14:34:06 2017, MaxMem=    33554432 cpu:         0.0
 (Enter /n/sw/g09_D.01/g09/l502.exe)
 Closed shell SCF:
 Using DIIS extrapolation, IDIIS=  1040.
 Overlap will be assumed to be unity.
 Two-electron integral symmetry not used.
 Keep J ints in memory in canonical form, NReq=884770.
 IVT=       79028 IEndB=       79028 NGot=    33554432 MDV=    33474844
 LenX=    33474844 LenY=    33473962
 Requested convergence on RMS density matrix=1.00D-08 within 128 cycles.
 Requested convergence on MAX density matrix=1.00D-06.
 Requested convergence on             energy=1.00D-06.
 No special actions if energy rises.
 FoFCou: FMM=F IPFlag=           0 FMFlag=           0 FMFlg1=           0
         NFxFlg=           0 DoJE=F BraDBF=F KetDBF=F FulRan=T
         wScrn=  0.000000 ICntrl=     600 IOpCl=  2 I1Cent=           0 NGrid=           0
         NMat0=    1 NMatS0=     33 NMatT0=    0 NMatD0=    1 NMtDS0=    0 NMtDT0=    0
 Symmetry not used in FoFCou.

 Cycle   1  Pass 1  IDiag  1:
 E= 0.254330049108020    
 DIIS: error= 1.11D-01 at cycle   1 NSaved=   1.
 NSaved= 1 IEnMin= 1 EnMin= 0.254330049108020     IErMin= 1 ErrMin= 1.11D-01
 ErrMax= 1.11D-01  0.00D+00 EMaxC= 1.00D-01 BMatC= 1.22D-01 BMatP= 1.22D-01
 IDIUse=3 WtCom= 0.00D+00 WtEn= 1.00D+00
 Coeff-Com:  0.100D+01
 Coeff-En:   0.100D+01
 Coeff:      0.100D+01
 GapD=    2.000 DampG=2.000 DampE=0.250 DampFc=0.5000 IDamp=-1.
 Damping current iteration by 5.00D-01
 RMSDP=2.98D-02 MaxDP=1.43D-01              OVMax= 0.00D+00

 Cycle   2  Pass 1  IDiag  1:
 E= 0.132414375792180     Delta-E=       -0.121915673316 Rises=F Damp=T
 DIIS: error= 6.71D-02 at cycle   2 NSaved=   2.
 NSaved= 2 IEnMin= 2 EnMin= 0.132414375792180     IErMin= 2 ErrMin= 6.71D-02
 ErrMax= 6.71D-02  0.00D+00 EMaxC= 1.00D-01 BMatC= 4.69D-02 BMatP= 1.22D-01
 IDIUse=3 WtCom= 3.29D-01 WtEn= 6.71D-01
 Coeff-Com: -0.162D+01 0.262D+01
 Coeff-En:   0.000D+00 0.100D+01
 Coeff:     -0.532D+00 0.153D+01
 RMSDP=1.99D-02 MaxDP=9.60D-02 DE=-1.22D-01 OVMax= 0.00D+00

 Cycle   3  Pass 1  IDiag  1:
 E=-0.288340613458473E-01 Delta-E=       -0.161248437138 Rises=F Damp=F
 DIIS: error= 9.11D-03 at cycle   3 NSaved=   3.
 NSaved= 3 IEnMin= 3 EnMin=-0.288340613458473E-01 IErMin= 3 ErrMin= 9.11D-03
 ErrMax= 9.11D-03  0.00D+00 EMaxC= 1.00D-01 BMatC= 1.04D-03 BMatP= 4.69D-02
 IDIUse=3 WtCom= 9.09D-01 WtEn= 9.11D-02
 Coeff-Com:  0.666D+00-0.131D+01 0.164D+01
 Coeff-En:   0.000D+00 0.000D+00 0.100D+01
 Coeff:      0.605D+00-0.119D+01 0.159D+01
 RMSDP=3.48D-03 MaxDP=1.84D-02 DE=-1.61D-01 OVMax= 0.00D+00

 Cycle   4  Pass 1  IDiag  3:
 E=-0.311949736942694E-01 Delta-E=       -0.002360912348 Rises=F Damp=F
 DIIS: error= 5.91D-04 at cycle   4 NSaved=   4.
 NSaved= 4 IEnMin= 4 EnMin=-0.311949736942694E-01 IErMin= 4 ErrMin= 5.91D-04
 ErrMax= 5.91D-04  0.00D+00 EMaxC= 1.00D-01 BMatC= 4.94D-06 BMatP= 1.04D-03
 IDIUse=3 WtCom= 9.94D-01 WtEn= 5.91D-03
 Coeff-Com: -0.178D+00 0.364D+00-0.583D+00 0.140D+01
 Coeff-En:   0.000D+00 0.000D+00 0.000D+00 0.100D+01
 Coeff:     -0.177D+00 0.362D+00-0.579D+00 0.139D+01
 Gap=     0.368 Goal=   None    Shift=    0.000
 RMSDP=4.92D-04 MaxDP=2.86D-03 DE=-2.36D-03 OVMax= 2.00D-03

 Cycle   5  Pass 1  IDiag  3:
 E=-0.312208388812820E-01 Delta-E=       -0.000025865187 Rises=F Damp=F
 DIIS: error= 1.03D-04 at cycle   5 NSaved=   5.
 NSaved= 5 IEnMin= 5 EnMin=-0.312208388812820E-01 IErMin= 5 ErrMin= 1.03D-04
 ErrMax= 1.03D-04  0.00D+00 EMaxC= 1.00D-01 BMatC= 1.51D-07 BMatP= 4.94D-06
 IDIUse=3 WtCom= 9.99D-01 WtEn= 1.03D-03
 Coeff-Com: -0.118D-01 0.225D-01-0.189D-01-0.161D+00 0.117D+01
 Coeff-En:   0.000D+00 0.000D+00 0.000D+00 0.000D+00 0.100D+01
 Coeff:     -0.118D-01 0.225D-01-0.189D-01-0.161D+00 0.117D+01
 Gap=     0.368 Goal=   None    Shift=    0.000
 RMSDP=1.03D-04 MaxDP=5.34D-04 DE=-2.59D-05 OVMax= 4.97D-04

 Cycle   6  Pass 1  IDiag  3:
 E=-0.312218298164595E-01 Delta-E=       -0.000000990935 Rises=F Damp=F
 DIIS: error= 2.24D-05 at cycle   6 NSaved=   6.
 NSaved= 6 IEnMin= 6 EnMin=-0.312218298164595E-01 IErMin= 6 ErrMin= 2.24D-05
 ErrMax= 2.24D-05  0.00D+00 EMaxC= 1.00D-01 BMatC= 1.14D-08 BMatP= 1.51D-07
 IDIUse=1 WtCom= 1.00D+00 WtEn= 0.00D+00
 Coeff-Com: -0.208D-02 0.439D-02-0.111D-01 0.145D+00-0.893D+00 0.176D+01
 Coeff:     -0.208D-02 0.439D-02-0.111D-01 0.145D+00-0.893D+00 0.176D+01
 Gap=     0.368 Goal=   None    Shift=    0.000
 RMSDP=3.37D-05 MaxDP=1.69D-04 DE=-9.91D-07 OVMax= 1.91D-04

 Cycle   7  Pass 1  IDiag  3:
 E=-0.312219070245447E-01 Delta-E=       -0.000000077208 Rises=F Damp=F
 DIIS: error= 1.94D-06 at cycle   7 NSaved=   7.
 NSaved= 7 IEnMin= 7 EnMin=-0.312219070245447E-01 IErMin= 7 ErrMin= 1.94D-06
 ErrMax= 1.94D-06  0.00D+00 EMaxC= 1.00D-01 BMatC= 9.32D-11 BMatP= 1.14D-08
 IDIUse=1 WtCom= 1.00D+00 WtEn= 0.00D+00
 Coeff-Com: -0.216D-03 0.356D-03 0.128D-02-0.505D-01 0.345D+00-0.733D+00
 Coeff-Com:  0.144D+01
 Coeff:     -0.216D-03 0.356D-03 0.128D-02-0.505D-01 0.345D+00-0.733D+00
 Coeff:      0.144D+01
 Gap=     0.368 Goal=   None    Shift=    0.000
 RMSDP=3.16D-06 MaxDP=1.34D-05 DE=-7.72D-08 OVMax= 2.15D-05

 Cycle   8  Pass 1  IDiag  3:
 E=-0.312219077496962E-01 Delta-E=       -0.000000000725 Rises=F Damp=F
 DIIS: error= 4.09D-07 at cycle   8 NSaved=   8.
 NSaved= 8 IEnMin= 8 EnMin=-0.312219077496962E-01 IErMin= 8 ErrMin= 4.09D-07
 ErrMax= 4.09D-07  0.00D+00 EMaxC= 1.00D-01 BMatC= 3.89D-12 BMatP= 9.32D-11
 IDIUse=1 WtCom= 1.00D+00 WtEn= 0.00D+00
 Coeff-Com:  0.663D-04-0.119D-03-0.325D-03 0.163D-01-0.114D+00 0.247D+00
 Coeff-Com: -0.650D+00 0.150D+01
 Coeff:      0.663D-04-0.119D-03-0.325D-03 0.163D-01-0.114D+00 0.247D+00
 Coeff:     -0.650D+00 0.150D+01
 Gap=     0.368 Goal=   None    Shift=    0.000
 RMSDP=7.22D-07 MaxDP=3.36D-06 DE=-7.25D-10 OVMax= 4.84D-06

 Cycle   9  Pass 1  IDiag  3:
 E=-0.312219077788427E-01 Delta-E=       -0.000000000029 Rises=F Damp=F
 DIIS: error= 4.09D-08 at cycle   9 NSaved=   9.
 NSaved= 9 IEnMin= 9 EnMin=-0.312219077788427E-01 IErMin= 9 ErrMin= 4.09D-08
 ErrMax= 4.09D-08  0.00D+00 EMaxC= 1.00D-01 BMatC= 4.12D-14 BMatP= 3.89D-12
 IDIUse=1 WtCom= 1.00D+00 WtEn= 0.00D+00
 Coeff-Com: -0.833D-05 0.144D-04 0.136D-03-0.578D-02 0.403D-01-0.878D-01
 Coeff-Com:  0.247D+00-0.611D+00 0.142D+01
 Coeff:     -0.833D-05 0.144D-04 0.136D-03-0.578D-02 0.403D-01-0.878D-01
 Coeff:      0.247D+00-0.611D+00 0.142D+01
 Gap=     0.368 Goal=   None    Shift=    0.000
 RMSDP=5.57D-08 MaxDP=3.04D-07 DE=-2.91D-11 OVMax= 3.07D-07

 Cycle  10  Pass 1  IDiag  3:
 E=-0.312219077789990E-01 Delta-E=        0.000000000000 Rises=F Damp=F
 DIIS: error= 4.91D-09 at cycle  10 NSaved=  10.
 NSaved=10 IEnMin=10 EnMin=-0.312219077789990E-01 IErMin=10 ErrMin= 4.91D-09
 ErrMax= 4.91D-09  0.00D+00 EMaxC= 1.00D-01 BMatC= 8.84D-16 BMatP= 4.12D-14
 IDIUse=1 WtCom= 1.00D+00 WtEn= 0.00D+00
 Coeff-Com: -0.474D-06 0.136D-05-0.368D-04 0.133D-02-0.927D-02 0.201D-01
 Coeff-Com: -0.574D-01 0.143D+00-0.418D+00 0.132D+01
 Coeff:     -0.474D-06 0.136D-05-0.368D-04 0.133D-02-0.927D-02 0.201D-01
 Coeff:     -0.574D-01 0.143D+00-0.418D+00 0.132D+01
 Gap=     0.368 Goal=   None    Shift=    0.000
 RMSDP=7.74D-09 MaxDP=2.99D-08 DE=-1.56D-13 OVMax= 4.25D-08

 Cycle  11  Pass 2  IDiag  1:
 SCF Done:  E(RAM1) = -0.312219077790E-01 A.U. after   11 cycles
            NFock= 10  Conv=0.77D-08     -V/T= 0.9976
 KE=-1.280335258067D+01 PE=-1.091477841694D+02 EE= 5.587401955559D+01
 Leave Link  502 at Fri Mar  3 14:34:06 2017, MaxMem=    33554432 cpu:         0.0
 (Enter /n/sw/g09_D.01/g09/l601.exe)
 Copying SCF densities to generalized density rwf, IOpCl= 0 IROHF=0.

 **********************************************************************

            Population analysis using the SCF density.

 **********************************************************************

 Orbital symmetries:
       Occupied  (A) (A) (A) (A) (A) (A) (A) (A) (A) (A) (A)
       Virtual   (A) (A) (A) (A)
 The electronic state is 1-A.
 Alpha  occ. eigenvalues --   -1.28554  -0.94052  -0.84311  -0.41778  -0.39937
 Alpha  occ. eigenvalues --   -0.39937  -0.22349  -0.22349  -0.12499  -0.12499
 Alpha  occ. eigenvalues --   -0.11889
 Alpha virt. eigenvalues --    0.24927   0.30143   0.30143   0.34211
          Condensed to atoms (all electrons):
               1          2          3          4          5          6
     1  C    4.368155   0.000000   0.000000   0.000000   0.000000   0.000000
     2  H    0.000000   0.867292   0.000000   0.000000   0.000000   0.000000
     3  H    0.000000   0.000000   0.867294   0.000000   0.000000   0.000000
     4  H    0.000000   0.000000   0.000000   0.867294   0.000000   0.000000
     5  Cl   0.000000   0.000000   0.000000   0.000000   7.062211   0.000000
     6  Cl   0.000000   0.000000   0.000000   0.000000   0.000000   7.967753
 Mulliken charges:
               1
     1  C   -0.368155
     2  H    0.132708
     3  H    0.132706
     4  H    0.132706
     5  Cl  -0.062211
     6  Cl  -0.967753
 Sum of Mulliken charges =  -1.00000
 Mulliken charges with hydrogens summed into heavy atoms:
               1
     1  C    0.029964
     5  Cl  -0.062211
     6  Cl  -0.967753
 Charge=             -1.0000 electrons
 Dipole moment (field-independent basis, Debye):
    X=              0.0050    Y=             -0.2064    Z=             -8.5392  Tot=              8.5417
 N-N= 6.604589528670D+01 E-N=-1.091477841668D+02  KE=-1.280335258067D+01
 Leave Link  601 at Fri Mar  3 14:34:06 2017, MaxMem=    33554432 cpu:         0.0
 (Enter /n/sw/g09_D.01/g09/l701.exe)
 Compute integral first derivatives.
 ... and contract with generalized density number  0.
 Leave Link  701 at Fri Mar  3 14:34:06 2017, MaxMem=    33554432 cpu:         0.1
 (Enter /n/sw/g09_D.01/g09/l702.exe)
 L702 exits ... SP integral derivatives will be done elsewhere.
 Leave Link  702 at Fri Mar  3 14:34:06 2017, MaxMem=    33554432 cpu:         0.0
 (Enter /n/sw/g09_D.01/g09/l703.exe)
 Compute integral first derivatives, UseDBF=F ICtDFT=           0.
 Integral derivatives from FoFJK, PRISM(SPDF).
 Calling FoFJK, ICntrl=      2127 FMM=F ISym2X=0 I1Cent= 0 IOpClX= 0 NMat=1 NMatS=1 NMatT=0.
 FoFJK:  IHMeth= 8 ICntrl=    2127 DoSepK=F KAlg= 0 I1Cent=   0 FoldK=F
 IRaf=         0 NMat=   1 IRICut=       1 DoRegI=T DoRafI=F ISym2E= 0.
 FoFCou: FMM=F IPFlag=           0 FMFlag=      100000 FMFlg1=         800
         NFxFlg=           0 DoJE=F BraDBF=F KetDBF=F FulRan=T
         wScrn=  0.000000 ICntrl=    2127 IOpCl=  0 I1Cent=           0 NGrid=           0
         NMat0=    1 NMatS0=      1 NMatT0=    0 NMatD0=    1 NMtDS0=    0 NMtDT0=    0
 Symmetry not used in FoFCou.
 Leave Link  703 at Fri Mar  3 14:34:06 2017, MaxMem=    33554432 cpu:         0.0
 (Enter /n/sw/g09_D.01/g09/l716.exe)
 Dipole        = 1.96389854D-03-8.12004818D-02-3.35956586D+00
 ***** Axes restored to original set *****
 -------------------------------------------------------------------
 Center     Atomic                   Forces (Hartrees/Bohr)
 Number     Number              X              Y              Z
 -------------------------------------------------------------------
      1        6          -0.275872578   -0.000000742    0.000000098
      2        1           0.035775439    0.034191813    0.036295816
      3        1           0.035774375    0.014337712   -0.047757426
      4        1           0.035774006   -0.048528076    0.011462122
      5       17           0.179559365   -0.000000607   -0.000000546
      6       17          -0.011010606   -0.000000099   -0.000000064
 -------------------------------------------------------------------
 Cartesian Forces:  Max     0.275872578 RMS     0.081570388
 Leave Link  716 at Fri Mar  3 14:34:06 2017, MaxMem=    33554432 cpu:         0.0
 (Enter /n/sw/g09_D.01/g09/l103.exe)

 GradGradGradGradGradGradGradGradGradGradGradGradGradGradGradGradGradGrad
 Berny optimization.
 FormGI is forming the generalized inverse of G from B-inverse, IUseBI=4.
 Internal  Forces:  Max     0.179559365 RMS     0.035197917
 Search for a local minimum.
 Step number   1 out of a maximum of   44
 All quantities printed in internal units (Hartrees-Bohrs-Radians)
 RMS Force = .35198D-01 SwitMx=.10000D-02 MixMth= 1
 Mixed Optimization -- RFO/linear search
 Second derivative matrix not updated -- first step.
 ITU=  0
     Eigenvalues ---    0.03156   0.03156   0.03170   0.05892   0.05892
     Eigenvalues ---    0.08969   0.08969   0.14197   0.18955   0.18955
     Eigenvalues ---    0.20465   0.75216
 RFO step:  Lambda=-7.49207065D-02 EMin= 3.15614869D-02
 Linear search not attempted -- first point.
 Maximum step size (   0.300) exceeded in Quadratic search.
    -- Step size scaled by   0.716
 Iteration  1 RMS(Cart)=  0.03654296 RMS(Int)=  0.00089476
 Iteration  2 RMS(Cart)=  0.00057208 RMS(Int)=  0.00017555
 Iteration  3 RMS(Cart)=  0.00000031 RMS(Int)=  0.00017555
 ITry= 1 IFail=0 DXMaxC= 9.97D-02 DCOld= 1.00D+10 DXMaxT= 3.00D-01 DXLimC= 3.00D+00 Rises=F
 Variable       Old X    -DE/DX   Delta X   Delta X   Delta X     New X
                                 (Linear)    (Quad)   (Total)
    R1        2.37605  -0.05361   0.00000  -0.13866  -0.13855   2.23750
    R2        2.37604  -0.05361   0.00000  -0.13865  -0.13854   2.23750
    R3        2.37604  -0.05361   0.00000  -0.13865  -0.13854   2.23750
    R4        2.84303   0.17956   0.00000   0.15540   0.15540   2.99843
    R5        4.62731   0.00041   0.00000   0.00794   0.00789   4.63520
    R6        4.62734   0.00041   0.00000   0.00794   0.00788   4.63522
    R7        4.62734   0.00041   0.00000   0.00794   0.00788   4.63523
    A1        1.71335   0.00645   0.00000   0.02219   0.02199   1.73534
    A2        1.71336   0.00645   0.00000   0.02219   0.02199   1.73535
    A3        2.08115  -0.00499   0.00000  -0.01718  -0.01718   2.06397
    A4        1.71336   0.00645   0.00000   0.02219   0.02199   1.73535
    A5        2.08114  -0.00499   0.00000  -0.01718  -0.01718   2.06397
    A6        2.08114  -0.00499   0.00000  -0.01717  -0.01718   2.06396
    A7        1.61657   0.00496   0.00000   0.00811   0.00823   1.62480
    A8        1.61656   0.00496   0.00000   0.00811   0.00823   1.62479
    A9        1.61656   0.00496   0.00000   0.00811   0.00823   1.62478
   A10        0.79697  -0.01672   0.00000  -0.04248  -0.04276   0.75421
   A11        0.79697  -0.01672   0.00000  -0.04248  -0.04276   0.75421
   A12        0.79697  -0.01672   0.00000  -0.04248  -0.04276   0.75421
    D1        0.86859   0.00440   0.00000   0.01513   0.01540   0.88399
    D2       -0.86859  -0.00440   0.00000  -0.01513  -0.01540  -0.88399
    D3        3.14159   0.00000   0.00000   0.00000   0.00000   3.14159
    D4       -0.86858  -0.00440   0.00000  -0.01513  -0.01540  -0.88398
    D5        0.86859   0.00440   0.00000   0.01513   0.01540   0.88399
    D6       -3.14159   0.00000   0.00000   0.00000   0.00000  -3.14159
    D7        0.86858   0.00440   0.00000   0.01513   0.01540   0.88398
    D8       -0.86859  -0.00440   0.00000  -0.01513  -0.01540  -0.88399
    D9        3.14159   0.00000   0.00000   0.00000   0.00000   3.14159
   D10       -0.57342   0.00227   0.00000   0.00578   0.00561  -0.56781
   D11        0.57341  -0.00227   0.00000  -0.00577  -0.00560   0.56781
   D12        0.57342  -0.00227   0.00000  -0.00578  -0.00561   0.56781
   D13       -0.57342   0.00227   0.00000   0.00577   0.00561  -0.56781
   D14       -0.57342   0.00227   0.00000   0.00578   0.00561  -0.56781
   D15        0.57342  -0.00227   0.00000  -0.00578  -0.00561   0.56781
         Item               Value     Threshold  Converged?
 Maximum Force            0.179559     0.000450     NO 
 RMS     Force            0.035198     0.000300     NO 
 Maximum Displacement     0.099661     0.001800     NO 
 RMS     Displacement     0.036865     0.001200     NO 
 Predicted change in Energy=-3.786862D-02
 Lowest energy point so far.  Saving SCF results.
 GradGradGradGradGradGradGradGradGradGradGradGradGradGradGradGradGradGrad

 Leave Link  103 at Fri Mar  3 14:34:06 2017, MaxMem=    33554432 cpu:         0.0
 (Enter /n/sw/g09_D.01/g09/l202.exe)
                          Input orientation:                          
 ---------------------------------------------------------------------
 Center     Atomic      Atomic             Coordinates (Angstroms)
 Number     Number       Type             X           Y           Z
 ---------------------------------------------------------------------
      1          6           0        0.512312    0.000003    0.000003
      2          1           0       -0.048241   -0.715129   -0.759147
      3          1           0       -0.048232   -0.299879    0.998900
      4          1           0       -0.048229    1.015015   -0.239741
      5         17           0        2.099012   -0.000002   -0.000002
      6         17           0       -2.268312   -0.000002   -0.000001
 ---------------------------------------------------------------------
                    Distance matrix (angstroms):
                    1          2          3          4          5
     1  C    0.000000
     2  H    1.184037   0.000000
     3  H    1.184033   1.806423   0.000000
     4  H    1.184032   1.806428   1.806427   0.000000
     5  Cl   1.586700   2.387133   2.387129   2.387128   0.000000
     6  Cl   2.780624   2.452841   2.452853   2.452856   4.367324
                    6
     6  Cl   0.000000
 Stoichiometry    CH3Cl2(1-)
 Framework group  C1[X(CH3Cl2)]
 Deg. of freedom    12
 Full point group                 C1      NOp   1
 RotChk:  IX=2 Diff= 2.00D+00
 Largest Abelian subgroup         C1      NOp   1
 Largest concise Abelian subgroup C1      NOp   1
                         Standard orientation:                         
 ---------------------------------------------------------------------
 Center     Atomic      Atomic             Coordinates (Angstroms)
 Number     Number       Type             X           Y           Z
 ---------------------------------------------------------------------
      1          6           0       -0.511124    0.000003   -0.000004
      2          1           0        0.049429   -0.616403    0.841284
      3          1           0        0.049419   -0.420375   -0.954471
      4          1           0        0.049417    1.036785    0.113172
      5         17           0       -2.097824   -0.000001    0.000001
      6         17           0        2.269500    0.000000    0.000001
 ---------------------------------------------------------------------
 Rotational constants (GHZ):    153.6709403      1.4917107      1.4917106
 Leave Link  202 at Fri Mar  3 14:34:06 2017, MaxMem=    33554432 cpu:         0.0
 (Enter /n/sw/g09_D.01/g09/l301.exe)
 Standard basis: VSTO-6G (5D, 7F)
 Ernie: Thresh=  0.10000D-02 Tol=  0.10000D-05 Strict=F.
  NNHCO=     0 NNPyr=     0 NCTC=     0               EPep=         0.000000000
    EC=        31.556672801  ECS=         0.513527238   EG=         0.127172384
   EHC=         0.000000000  EAt=       -33.052414446  AtH=         0.613817032
 EPDDG=         0.000000000  ECC=        32.197372424 EAtT=        33.666231478
 There are    15 symmetry adapted cartesian basis functions of A   symmetry.
 There are    15 symmetry adapted basis functions of A   symmetry.
    15 basis functions,    90 primitive gaussians,    15 cartesian basis functions
    11 alpha electrons       11 beta electrons
       nuclear repulsion energy        65.8636039019 Hartrees.



 Warning!  Cl atom    5 may be hypervalent but has no d functions.



 IExCor=    0 DFT=F Ex=HF Corr=None ExCW=0 ScaHFX=  1.000000
 ScaDFX=  1.000000  1.000000  1.000000  1.000000 ScalE2=  1.000000  1.000000
 IRadAn=      0 IRanWt=     -1 IRanGd=            0 ICorTp=0 IEmpDi=  4
 Integral buffers will be    131072 words long.
 Regular integral format.
 Two-electron integral symmetry is turned off.
 Leave Link  301 at Fri Mar  3 14:34:06 2017, MaxMem=    33554432 cpu:         0.0
 (Enter /n/sw/g09_D.01/g09/l302.exe)
 Do NDO integrals.
 NPDir=0 NMtPBC=     1 NCelOv=     1 NCel=       1 NClECP=     1 NCelD=      1
         NCelK=      1 NCelE2=     1 NClLst=     1 CellRange=     0.0.
 One-electron integrals computed using PRISM.
 NBasis=    15 RedAO= F EigKep=  0.00D+00  NBF=    15
 NBsUse=    15 1.00D-04 EigRej=  0.00D+00 NBFU=    15
 Leave Link  302 at Fri Mar  3 14:34:06 2017, MaxMem=    33554432 cpu:         0.1
 (Enter /n/sw/g09_D.01/g09/l303.exe)
 DipDrv:  MaxL=1.
 Leave Link  303 at Fri Mar  3 14:34:06 2017, MaxMem=    33554432 cpu:         0.0
 (Enter /n/sw/g09_D.01/g09/l401.exe)
 Initial guess from the checkpoint file:  "/scratch/Gau-27576.chk"
 B after Tr=     0.000000    0.000000    0.000000
         Rot=    0.705559    0.043526   -0.704713    0.060597 Ang=  90.25 deg.
 Guess basis will be translated and rotated to current coordinates.
 JPrj=0 DoOrth=T DoCkMO=T.
 Leave Link  401 at Fri Mar  3 14:34:06 2017, MaxMem=    33554432 cpu:         0.1
 (Enter /n/sw/g09_D.01/g09/l502.exe)
 Closed shell SCF:
 Using DIIS extrapolation, IDIIS=  1040.
 Overlap will be assumed to be unity.
 Two-electron integral symmetry not used.
 Keep J ints in memory in canonical form, NReq=884770.
 IVT=       79028 IEndB=       79028 NGot=    33554432 MDV=    33474844
 LenX=    33474844 LenY=    33473962
 Requested convergence on RMS density matrix=1.00D-08 within 128 cycles.
 Requested convergence on MAX density matrix=1.00D-06.
 Requested convergence on             energy=1.00D-06.
 No special actions if energy rises.
 FoFCou: FMM=F IPFlag=           0 FMFlag=           0 FMFlg1=           0
         NFxFlg=           0 DoJE=F BraDBF=F KetDBF=F FulRan=T
         wScrn=  0.000000 ICntrl=     600 IOpCl=  2 I1Cent=           0 NGrid=           0
         NMat0=    1 NMatS0=     33 NMatT0=    0 NMatD0=    1 NMtDS0=    0 NMtDT0=    0
 Symmetry not used in FoFCou.

 Cycle   1  Pass 1  IDiag  1:
 E=-0.697001216996824E-01
 DIIS: error= 7.23D-03 at cycle   1 NSaved=   1.
 NSaved= 1 IEnMin= 1 EnMin=-0.697001216996824E-01 IErMin= 1 ErrMin= 7.23D-03
 ErrMax= 7.23D-03  0.00D+00 EMaxC= 1.00D-01 BMatC= 1.18D-03 BMatP= 1.18D-03
 IDIUse=3 WtCom= 9.28D-01 WtEn= 7.23D-02
 Coeff-Com:  0.100D+01
 Coeff-En:   0.100D+01
 Coeff:      0.100D+01
 GapD=    2.000 DampG=2.000 DampE=1.000 DampFc=2.0000 IDamp=-1.
 RMSDP=3.44D-03 MaxDP=1.19D-02              OVMax= 0.00D+00

 Cycle   2  Pass 1  IDiag  3:
 E=-0.725866591036066E-01 Delta-E=       -0.002886537404 Rises=F Damp=F
 DIIS: error= 1.70D-03 at cycle   2 NSaved=   2.
 NSaved= 2 IEnMin= 2 EnMin=-0.725866591036066E-01 IErMin= 2 ErrMin= 1.70D-03
 ErrMax= 1.70D-03  0.00D+00 EMaxC= 1.00D-01 BMatC= 6.75D-05 BMatP= 1.18D-03
 IDIUse=3 WtCom= 9.83D-01 WtEn= 1.70D-02
 Coeff-Com: -0.298D+00 0.130D+01
 Coeff-En:   0.000D+00 0.100D+01
 Coeff:     -0.293D+00 0.129D+01
 Gap=     0.360 Goal=   None    Shift=    0.000
 RMSDP=1.24D-03 MaxDP=4.32D-03 DE=-2.89D-03 OVMax= 5.84D-03

 Cycle   3  Pass 1  IDiag  3:
 E=-0.728022397181149E-01 Delta-E=       -0.000215580615 Rises=F Damp=F
 DIIS: error= 1.53D-04 at cycle   3 NSaved=   3.
 NSaved= 3 IEnMin= 3 EnMin=-0.728022397181149E-01 IErMin= 3 ErrMin= 1.53D-04
 ErrMax= 1.53D-04  0.00D+00 EMaxC= 1.00D-01 BMatC= 7.43D-07 BMatP= 6.75D-05
 IDIUse=3 WtCom= 9.98D-01 WtEn= 1.53D-03
 Coeff-Com:  0.141D+00-0.651D+00 0.151D+01
 Coeff-En:   0.000D+00 0.000D+00 0.100D+01
 Coeff:      0.141D+00-0.650D+00 0.151D+01
 Gap=     0.360 Goal=   None    Shift=    0.000
 RMSDP=2.16D-04 MaxDP=1.14D-03 DE=-2.16D-04 OVMax= 1.12D-03

 Cycle   4  Pass 1  IDiag  3:
 E=-0.728061790759966E-01 Delta-E=       -0.000003939358 Rises=F Damp=F
 DIIS: error= 1.72D-05 at cycle   4 NSaved=   4.
 NSaved= 4 IEnMin= 4 EnMin=-0.728061790759966E-01 IErMin= 4 ErrMin= 1.72D-05
 ErrMax= 1.72D-05  0.00D+00 EMaxC= 1.00D-01 BMatC= 7.34D-09 BMatP= 7.43D-07
 IDIUse=1 WtCom= 1.00D+00 WtEn= 0.00D+00
 Coeff-Com: -0.534D-01 0.248D+00-0.593D+00 0.140D+01
 Coeff:     -0.534D-01 0.248D+00-0.593D+00 0.140D+01
 Gap=     0.360 Goal=   None    Shift=    0.000
 RMSDP=2.50D-05 MaxDP=1.35D-04 DE=-3.94D-06 OVMax= 1.75D-04

 Cycle   5  Pass 1  IDiag  3:
 E=-0.728062325994330E-01 Delta-E=       -0.000000053523 Rises=F Damp=F
 DIIS: error= 3.63D-06 at cycle   5 NSaved=   5.
 NSaved= 5 IEnMin= 5 EnMin=-0.728062325994330E-01 IErMin= 5 ErrMin= 3.63D-06
 ErrMax= 3.63D-06  0.00D+00 EMaxC= 1.00D-01 BMatC= 4.65D-10 BMatP= 7.34D-09
 IDIUse=1 WtCom= 1.00D+00 WtEn= 0.00D+00
 Coeff-Com:  0.135D-01-0.638D-01 0.149D+00-0.518D+00 0.142D+01
 Coeff:      0.135D-01-0.638D-01 0.149D+00-0.518D+00 0.142D+01
 Gap=     0.360 Goal=   None    Shift=    0.000
 RMSDP=7.38D-06 MaxDP=3.71D-05 DE=-5.35D-08 OVMax= 5.28D-05

 Cycle   6  Pass 1  IDiag  3:
 E=-0.728062360648494E-01 Delta-E=       -0.000000003465 Rises=F Damp=F
 DIIS: error= 6.46D-07 at cycle   6 NSaved=   6.
 NSaved= 6 IEnMin= 6 EnMin=-0.728062360648494E-01 IErMin= 6 ErrMin= 6.46D-07
 ErrMax= 6.46D-07  0.00D+00 EMaxC= 1.00D-01 BMatC= 1.51D-11 BMatP= 4.65D-10
 IDIUse=1 WtCom= 1.00D+00 WtEn= 0.00D+00
 Coeff-Com: -0.204D-02 0.100D-01-0.218D-01 0.101D+00-0.444D+00 0.136D+01
 Coeff:     -0.204D-02 0.100D-01-0.218D-01 0.101D+00-0.444D+00 0.136D+01
 Gap=     0.360 Goal=   None    Shift=    0.000
 RMSDP=1.05D-06 MaxDP=4.58D-06 DE=-3.47D-09 OVMax= 6.34D-06

 Cycle   7  Pass 1  IDiag  3:
 E=-0.728062361528430E-01 Delta-E=       -0.000000000088 Rises=F Damp=F
 DIIS: error= 1.01D-07 at cycle   7 NSaved=   7.
 NSaved= 7 IEnMin= 7 EnMin=-0.728062361528430E-01 IErMin= 7 ErrMin= 1.01D-07
 ErrMax= 1.01D-07  0.00D+00 EMaxC= 1.00D-01 BMatC= 4.66D-13 BMatP= 1.51D-11
 IDIUse=1 WtCom= 1.00D+00 WtEn= 0.00D+00
 Coeff-Com:  0.251D-03-0.135D-02 0.240D-02-0.174D-01 0.116D+00-0.495D+00
 Coeff-Com:  0.140D+01
 Coeff:      0.251D-03-0.135D-02 0.240D-02-0.174D-01 0.116D+00-0.495D+00
 Coeff:      0.140D+01
 Gap=     0.360 Goal=   None    Shift=    0.000
 RMSDP=1.65D-07 MaxDP=6.37D-07 DE=-8.80D-11 OVMax= 9.52D-07

 Cycle   8  Pass 1  IDiag  3:
 E=-0.728062361552873E-01 Delta-E=       -0.000000000002 Rises=F Damp=F
 DIIS: error= 1.52D-08 at cycle   8 NSaved=   8.
 NSaved= 8 IEnMin= 8 EnMin=-0.728062361552873E-01 IErMin= 8 ErrMin= 1.52D-08
 ErrMax= 1.52D-08  0.00D+00 EMaxC= 1.00D-01 BMatC= 9.17D-15 BMatP= 4.66D-13
 IDIUse=1 WtCom= 1.00D+00 WtEn= 0.00D+00
 Coeff-Com: -0.486D-04 0.299D-03-0.372D-03 0.487D-02-0.414D-01 0.191D+00
 Coeff-Com: -0.612D+00 0.146D+01
 Coeff:     -0.486D-04 0.299D-03-0.372D-03 0.487D-02-0.414D-01 0.191D+00
 Coeff:     -0.612D+00 0.146D+01
 Gap=     0.360 Goal=   None    Shift=    0.000
 RMSDP=2.82D-08 MaxDP=1.15D-07 DE=-2.44D-12 OVMax= 1.92D-07

 Cycle   9  Pass 1  IDiag  3:
 E=-0.728062361554151E-01 Delta-E=        0.000000000000 Rises=F Damp=F
 DIIS: error= 2.18D-09 at cycle   9 NSaved=   9.
 NSaved= 9 IEnMin= 9 EnMin=-0.728062361554151E-01 IErMin= 9 ErrMin= 2.18D-09
 ErrMax= 2.18D-09  0.00D+00 EMaxC= 1.00D-01 BMatC= 1.91D-16 BMatP= 9.17D-15
 IDIUse=1 WtCom= 1.00D+00 WtEn= 0.00D+00
 Coeff-Com:  0.273D-05-0.390D-04-0.324D-04-0.123D-02 0.138D-01-0.677D-01
 Coeff-Com:  0.231D+00-0.637D+00 0.146D+01
 Coeff:      0.273D-05-0.390D-04-0.324D-04-0.123D-02 0.138D-01-0.677D-01
 Coeff:      0.231D+00-0.637D+00 0.146D+01
 Gap=     0.360 Goal=   None    Shift=    0.000
 RMSDP=3.73D-09 MaxDP=1.53D-08 DE=-1.28D-13 OVMax= 0.00D+00

 SCF Done:  E(RAM1) = -0.728062361554E-01 A.U. after    9 cycles
            NFock=  9  Conv=0.37D-08     -V/T= 0.9943
 KE=-1.283208385230D+01 PE=-1.087669969399D+02 EE= 5.566267065408D+01
 Leave Link  502 at Fri Mar  3 14:34:06 2017, MaxMem=    33554432 cpu:         0.0
 (Enter /n/sw/g09_D.01/g09/l701.exe)
 Compute integral first derivatives.
 ... and contract with generalized density number  0.
 Leave Link  701 at Fri Mar  3 14:34:06 2017, MaxMem=    33554432 cpu:         0.1
 (Enter /n/sw/g09_D.01/g09/l702.exe)
 L702 exits ... SP integral derivatives will be done elsewhere.
 Leave Link  702 at Fri Mar  3 14:34:06 2017, MaxMem=    33554432 cpu:         0.0
 (Enter /n/sw/g09_D.01/g09/l703.exe)
 Compute integral first derivatives, UseDBF=F ICtDFT=           0.
 Integral derivatives from FoFJK, PRISM(SPDF).
 Calling FoFJK, ICntrl=      2127 FMM=F ISym2X=0 I1Cent= 0 IOpClX= 0 NMat=1 NMatS=1 NMatT=0.
 FoFJK:  IHMeth= 8 ICntrl=    2127 DoSepK=F KAlg= 0 I1Cent=   0 FoldK=F
 IRaf=         0 NMat=   1 IRICut=       1 DoRegI=T DoRafI=F ISym2E= 0.
 FoFCou: FMM=F IPFlag=           0 FMFlag=      100000 FMFlg1=         800
         NFxFlg=           0 DoJE=F BraDBF=F KetDBF=F FulRan=T
         wScrn=  0.000000 ICntrl=    2127 IOpCl=  0 I1Cent=           0 NGrid=           0
         NMat0=    1 NMatS0=      1 NMatT0=    0 NMatD0=    1 NMtDS0=    0 NMtDT0=    0
 Symmetry not used in FoFCou.
 Leave Link  703 at Fri Mar  3 14:34:06 2017, MaxMem=    33554432 cpu:         0.0
 (Enter /n/sw/g09_D.01/g09/l716.exe)
 Dipole        =-3.28930553D+00-9.06100753D-07-1.65944127D-06
 ***** Axes restored to original set *****
 -------------------------------------------------------------------
 Center     Atomic                   Forces (Hartrees/Bohr)
 Number     Number              X              Y              Z
 -------------------------------------------------------------------
      1        6          -0.164252179   -0.000000781   -0.000000136
      2        1           0.025979057    0.015504159    0.016457992
      3        1           0.025978349    0.006501353   -0.021654830
      4        1           0.025978049   -0.022004308    0.005197314
      5       17           0.097505840   -0.000000364   -0.000000302
      6       17          -0.011189115   -0.000000059   -0.000000038
 -------------------------------------------------------------------
 Cartesian Forces:  Max     0.164252179 RMS     0.047240316
 Leave Link  716 at Fri Mar  3 14:34:06 2017, MaxMem=    33554432 cpu:         0.0
 (Enter /n/sw/g09_D.01/g09/l103.exe)

 GradGradGradGradGradGradGradGradGradGradGradGradGradGradGradGradGradGrad
 Berny optimization.
 Using GEDIIS/GDIIS optimizer.
 FormGI is forming the generalized inverse of G from B-inverse, IUseBI=4.
 Internal  Forces:  Max     0.097505840 RMS     0.019241523
 Search for a local minimum.
 Step number   2 out of a maximum of   44
 All quantities printed in internal units (Hartrees-Bohrs-Radians)
 RMS Force = .19242D-01 SwitMx=.10000D-02 MixMth= 1
 Mixed Optimization -- RFO/linear search
 Update second derivatives using D2CorX and points    1    2
 DE= -4.16D-02 DEPred=-3.79D-02 R= 1.10D+00
 TightC=F SS=  1.41D+00  RLast= 3.03D-01 DXNew= 5.0454D-01 9.0774D-01
 Trust test= 1.10D+00 RLast= 3.03D-01 DXMaxT set to 5.05D-01
 ITU=  1  0
 Use linear search instead of GDIIS.
     Eigenvalues ---    0.03101   0.03209   0.03209   0.06025   0.06025
     Eigenvalues ---    0.09229   0.09229   0.12820   0.18772   0.18772
     Eigenvalues ---    0.21269   0.60265
 RFO step:  Lambda=-5.79750856D-03 EMin= 3.10141122D-02
 Quartic linear search produced a step of  1.19467.
 Iteration  1 RMS(Cart)=  0.04746371 RMS(Int)=  0.00470584
 Iteration  2 RMS(Cart)=  0.00353361 RMS(Int)=  0.00199548
 Iteration  3 RMS(Cart)=  0.00001210 RMS(Int)=  0.00199539
 Iteration  4 RMS(Cart)=  0.00000004 RMS(Int)=  0.00199539
 ITry= 1 IFail=0 DXMaxC= 1.50D-01 DCOld= 1.00D+10 DXMaxT= 5.05D-01 DXLimC= 3.00D+00 Rises=F
 Variable       Old X    -DE/DX   Delta X   Delta X   Delta X     New X
                                 (Linear)    (Quad)   (Total)
    R1        2.23750  -0.02889  -0.16552  -0.00438  -0.16923   2.06827
    R2        2.23750  -0.02889  -0.16551  -0.00438  -0.16922   2.06828
    R3        2.23750  -0.02889  -0.16551  -0.00438  -0.16922   2.06828
    R4        2.99843   0.09751   0.18565   0.01199   0.19764   3.19607
    R5        4.63520   0.00262   0.00942   0.15328   0.16241   4.79761
    R6        4.63522   0.00262   0.00942   0.15328   0.16241   4.79763
    R7        4.63523   0.00262   0.00942   0.15328   0.16241   4.79764
    A1        1.73534   0.00645   0.02627   0.05429   0.07656   1.81190
    A2        1.73535   0.00645   0.02627   0.05428   0.07655   1.81190
    A3        2.06397  -0.00509  -0.02052  -0.04280  -0.06268   2.00128
    A4        1.73535   0.00645   0.02627   0.05428   0.07655   1.81190
    A5        2.06397  -0.00509  -0.02052  -0.04281  -0.06269   2.00128
    A6        2.06396  -0.00509  -0.02052  -0.04280  -0.06268   2.00128
    A7        1.62480  -0.00004   0.00983  -0.03716  -0.02606   1.59873
    A8        1.62479  -0.00004   0.00983  -0.03716  -0.02606   1.59872
    A9        1.62478  -0.00004   0.00983  -0.03716  -0.02606   1.59872
   A10        0.75421  -0.00851  -0.05109  -0.00952  -0.06190   0.69231
   A11        0.75421  -0.00851  -0.05109  -0.00952  -0.06190   0.69231
   A12        0.75421  -0.00851  -0.05109  -0.00952  -0.06190   0.69231
    D1        0.88399   0.00464   0.01840   0.03905   0.06094   0.94493
    D2       -0.88399  -0.00464  -0.01840  -0.03905  -0.06094  -0.94493
    D3        3.14159   0.00000   0.00000   0.00000   0.00000   3.14159
    D4       -0.88398  -0.00464  -0.01840  -0.03905  -0.06094  -0.94492
    D5        0.88399   0.00464   0.01840   0.03905   0.06094   0.94494
    D6       -3.14159   0.00000   0.00000   0.00000   0.00000  -3.14159
    D7        0.88398   0.00464   0.01840   0.03905   0.06094   0.94492
    D8       -0.88399  -0.00464  -0.01840  -0.03905  -0.06094  -0.94493
    D9        3.14159   0.00000   0.00000   0.00000   0.00000   3.14159
   D10       -0.56781   0.00108   0.00670   0.00120   0.00741  -0.56040
   D11        0.56781  -0.00107  -0.00670  -0.00120  -0.00740   0.56040
   D12        0.56781  -0.00108  -0.00670  -0.00121  -0.00741   0.56040
   D13       -0.56781   0.00108   0.00670   0.00120   0.00741  -0.56041
   D14       -0.56781   0.00108   0.00670   0.00120   0.00741  -0.56040
   D15        0.56781  -0.00108  -0.00670  -0.00120  -0.00741   0.56041
         Item               Value     Threshold  Converged?
 Maximum Force            0.097506     0.000450     NO 
 RMS     Force            0.019242     0.000300     NO 
 Maximum Displacement     0.149865     0.001800     NO 
 RMS     Displacement     0.049366     0.001200     NO 
 Predicted change in Energy=-2.138175D-02
 Lowest energy point so far.  Saving SCF results.
 GradGradGradGradGradGradGradGradGradGradGradGradGradGradGradGradGradGrad

 Leave Link  103 at Fri Mar  3 14:34:06 2017, MaxMem=    33554432 cpu:         0.0
 (Enter /n/sw/g09_D.01/g09/l202.exe)
                          Input orientation:                          
 ---------------------------------------------------------------------
 Center     Atomic      Atomic             Coordinates (Angstroms)
 Number     Number       Type             X           Y           Z
 ---------------------------------------------------------------------
      1          6           0        0.444973    0.000002    0.000003
      2          1           0       -0.011773   -0.681999   -0.723981
      3          1           0       -0.011767   -0.285987    0.952630
      4          1           0       -0.011765    0.967996   -0.228635
      5         17           0        2.136259   -0.000004   -0.000002
      6         17           0       -2.347617   -0.000003   -0.000001
 ---------------------------------------------------------------------
                    Distance matrix (angstroms):
                    1          2          3          4          5
     1  C    0.000000
     2  H    1.094484   0.000000
     3  H    1.094486   1.722745   0.000000
     4  H    1.094486   1.722745   1.722748   0.000000
     5  Cl   1.691286   2.367130   2.367131   2.367130   0.000000
     6  Cl   2.792590   2.538786   2.538797   2.538799   4.483876
                    6
     6  Cl   0.000000
 Stoichiometry    CH3Cl2(1-)
 Framework group  C1[X(CH3Cl2)]
 Deg. of freedom    12
 Full point group                 C1      NOp   1
 RotChk:  IX=0 Diff= 7.60D-01
 Largest Abelian subgroup         C1      NOp   1
 Largest concise Abelian subgroup C1      NOp   1
                         Standard orientation:                         
 ---------------------------------------------------------------------
 Center     Atomic      Atomic             Coordinates (Angstroms)
 Number     Number       Type             X           Y           Z
 ---------------------------------------------------------------------
      1          6           0       -0.467265    0.000001   -0.000005
      2          1           0       -0.010519   -0.087482    0.990764
      3          1           0       -0.010525   -0.814293   -0.571156
      4          1           0       -0.010527    0.901779   -0.419631
      5         17           0       -2.158551    0.000000    0.000002
      6         17           0        2.325325    0.000000    0.000001
 ---------------------------------------------------------------------
 Rotational constants (GHZ):    168.9621838      1.4190908      1.4190907
 Leave Link  202 at Fri Mar  3 14:34:06 2017, MaxMem=    33554432 cpu:         0.0
 (Enter /n/sw/g09_D.01/g09/l301.exe)
 Standard basis: VSTO-6G (5D, 7F)
 Ernie: Thresh=  0.10000D-02 Tol=  0.10000D-05 Strict=F.
  NNHCO=     0 NNPyr=     0 NCTC=     0               EPep=         0.000000000
    EC=        31.142752581  ECS=         0.557748277   EG=         0.118674858
   EHC=         0.000000000  EAt=       -33.052414446  AtH=         0.613817032
 EPDDG=         0.000000000  ECC=        31.819175716 EAtT=        33.666231478
 There are    15 symmetry adapted cartesian basis functions of A   symmetry.
 There are    15 symmetry adapted basis functions of A   symmetry.
    15 basis functions,    90 primitive gaussians,    15 cartesian basis functions
    11 alpha electrons       11 beta electrons
       nuclear repulsion energy        65.4854071942 Hartrees.
 IExCor=    0 DFT=F Ex=HF Corr=None ExCW=0 ScaHFX=  1.000000
 ScaDFX=  1.000000  1.000000  1.000000  1.000000 ScalE2=  1.000000  1.000000
 IRadAn=      0 IRanWt=     -1 IRanGd=            0 ICorTp=0 IEmpDi=  4
 Integral buffers will be    131072 words long.
 Regular integral format.
 Two-electron integral symmetry is turned off.
 Leave Link  301 at Fri Mar  3 14:34:06 2017, MaxMem=    33554432 cpu:         0.0
 (Enter /n/sw/g09_D.01/g09/l302.exe)
 Do NDO integrals.
 NPDir=0 NMtPBC=     1 NCelOv=     1 NCel=       1 NClECP=     1 NCelD=      1
         NCelK=      1 NCelE2=     1 NClLst=     1 CellRange=     0.0.
 One-electron integrals computed using PRISM.
 NBasis=    15 RedAO= F EigKep=  0.00D+00  NBF=    15
 NBsUse=    15 1.00D-04 EigRej=  0.00D+00 NBFU=    15
 Leave Link  302 at Fri Mar  3 14:34:07 2017, MaxMem=    33554432 cpu:         0.1
 (Enter /n/sw/g09_D.01/g09/l303.exe)
 DipDrv:  MaxL=1.
 Leave Link  303 at Fri Mar  3 14:34:07 2017, MaxMem=    33554432 cpu:         0.0
 (Enter /n/sw/g09_D.01/g09/l401.exe)
 Initial guess from the checkpoint file:  "/scratch/Gau-27576.chk"
 B after Tr=     0.000000    0.000000    0.000000
         Rot=    0.963201    0.268784    0.000000    0.000000 Ang=  31.18 deg.
 Guess basis will be translated and rotated to current coordinates.
 JPrj=0 DoOrth=T DoCkMO=T.
 Leave Link  401 at Fri Mar  3 14:34:07 2017, MaxMem=    33554432 cpu:         0.1
 (Enter /n/sw/g09_D.01/g09/l502.exe)
 Closed shell SCF:
 Using DIIS extrapolation, IDIIS=  1040.
 Overlap will be assumed to be unity.
 Two-electron integral symmetry not used.
 Keep J ints in memory in canonical form, NReq=884770.
 IVT=       79028 IEndB=       79028 NGot=    33554432 MDV=    33474844
 LenX=    33474844 LenY=    33473962
 Requested convergence on RMS density matrix=1.00D-08 within 128 cycles.
 Requested convergence on MAX density matrix=1.00D-06.
 Requested convergence on             energy=1.00D-06.
 No special actions if energy rises.
 FoFCou: FMM=F IPFlag=           0 FMFlag=           0 FMFlg1=           0
         NFxFlg=           0 DoJE=F BraDBF=F KetDBF=F FulRan=T
         wScrn=  0.000000 ICntrl=     600 IOpCl=  2 I1Cent=           0 NGrid=           0
         NMat0=    1 NMatS0=     33 NMatT0=    0 NMatD0=    1 NMtDS0=    0 NMtDT0=    0
 Symmetry not used in FoFCou.

 Cycle   1  Pass 1  IDiag  1:
 E=-0.891800020818181E-01
 DIIS: error= 1.07D-02 at cycle   1 NSaved=   1.
 NSaved= 1 IEnMin= 1 EnMin=-0.891800020818181E-01 IErMin= 1 ErrMin= 1.07D-02
 ErrMax= 1.07D-02  0.00D+00 EMaxC= 1.00D-01 BMatC= 2.06D-03 BMatP= 2.06D-03
 IDIUse=3 WtCom= 8.93D-01 WtEn= 1.07D-01
 Coeff-Com:  0.100D+01
 Coeff-En:   0.100D+01
 Coeff:      0.100D+01
 GapD=    2.000 DampG=2.000 DampE=0.500 DampFc=1.0000 IDamp=-1.
 RMSDP=4.68D-03 MaxDP=1.77D-02              OVMax= 0.00D+00

 Cycle   2  Pass 1  IDiag  3:
 E=-0.944767729626079E-01 Delta-E=       -0.005296770881 Rises=F Damp=F
 DIIS: error= 2.75D-03 at cycle   2 NSaved=   2.
 NSaved= 2 IEnMin= 2 EnMin=-0.944767729626079E-01 IErMin= 2 ErrMin= 2.75D-03
 ErrMax= 2.75D-03  0.00D+00 EMaxC= 1.00D-01 BMatC= 1.36D-04 BMatP= 2.06D-03
 IDIUse=3 WtCom= 9.72D-01 WtEn= 2.75D-02
 Coeff-Com: -0.322D+00 0.132D+01
 Coeff-En:   0.000D+00 0.100D+01
 Coeff:     -0.313D+00 0.131D+01
 Gap=     0.343 Goal=   None    Shift=    0.000
 RMSDP=1.86D-03 MaxDP=7.21D-03 DE=-5.30D-03 OVMax= 9.52D-03

 Cycle   3  Pass 1  IDiag  3:
 E=-0.949489324195696E-01 Delta-E=       -0.000472159457 Rises=F Damp=F
 DIIS: error= 2.45D-04 at cycle   3 NSaved=   3.
 NSaved= 3 IEnMin= 3 EnMin=-0.949489324195696E-01 IErMin= 3 ErrMin= 2.45D-04
 ErrMax= 2.45D-04  0.00D+00 EMaxC= 1.00D-01 BMatC= 2.18D-06 BMatP= 1.36D-04
 IDIUse=3 WtCom= 9.98D-01 WtEn= 2.45D-03
 Coeff-Com:  0.158D+00-0.703D+00 0.155D+01
 Coeff-En:   0.000D+00 0.000D+00 0.100D+01
 Coeff:      0.157D+00-0.701D+00 0.154D+01
 Gap=     0.343 Goal=   None    Shift=    0.000
 RMSDP=4.06D-04 MaxDP=2.27D-03 DE=-4.72D-04 OVMax= 2.09D-03

 Cycle   4  Pass 1  IDiag  3:
 E=-0.949619524289744E-01 Delta-E=       -0.000013020009 Rises=F Damp=F
 DIIS: error= 4.17D-05 at cycle   4 NSaved=   4.
 NSaved= 4 IEnMin= 4 EnMin=-0.949619524289744E-01 IErMin= 4 ErrMin= 4.17D-05
 ErrMax= 4.17D-05  0.00D+00 EMaxC= 1.00D-01 BMatC= 3.93D-08 BMatP= 2.18D-06
 IDIUse=1 WtCom= 1.00D+00 WtEn= 0.00D+00
 Coeff-Com: -0.854D-01 0.385D+00-0.874D+00 0.157D+01
 Coeff:     -0.854D-01 0.385D+00-0.874D+00 0.157D+01
 Gap=     0.343 Goal=   None    Shift=    0.000
 RMSDP=6.42D-05 MaxDP=3.69D-04 DE=-1.30D-05 OVMax= 4.87D-04

 Cycle   5  Pass 1  IDiag  3:
 E=-0.949622476071568E-01 Delta-E=       -0.000000295178 Rises=F Damp=F
 DIIS: error= 7.57D-06 at cycle   5 NSaved=   5.
 NSaved= 5 IEnMin= 5 EnMin=-0.949622476071568E-01 IErMin= 5 ErrMin= 7.57D-06
 ErrMax= 7.57D-06  0.00D+00 EMaxC= 1.00D-01 BMatC= 1.41D-09 BMatP= 3.93D-08
 IDIUse=1 WtCom= 1.00D+00 WtEn= 0.00D+00
 Coeff-Com:  0.132D-01-0.613D-01 0.136D+00-0.373D+00 0.128D+01
 Coeff:      0.132D-01-0.613D-01 0.136D+00-0.373D+00 0.128D+01
 Gap=     0.343 Goal=   None    Shift=    0.000
 RMSDP=1.16D-05 MaxDP=6.09D-05 DE=-2.95D-07 OVMax= 8.08D-05

 Cycle   6  Pass 1  IDiag  3:
 E=-0.949622561019225E-01 Delta-E=       -0.000000008495 Rises=F Damp=F
 DIIS: error= 9.83D-07 at cycle   6 NSaved=   6.
 NSaved= 6 IEnMin= 6 EnMin=-0.949622561019225E-01 IErMin= 6 ErrMin= 9.83D-07
 ErrMax= 9.83D-07  0.00D+00 EMaxC= 1.00D-01 BMatC= 3.33D-11 BMatP= 1.41D-09
 IDIUse=1 WtCom= 1.00D+00 WtEn= 0.00D+00
 Coeff-Com: -0.115D-02 0.591D-02-0.118D-01 0.514D-01-0.325D+00 0.128D+01
 Coeff:     -0.115D-02 0.591D-02-0.118D-01 0.514D-01-0.325D+00 0.128D+01
 Gap=     0.343 Goal=   None    Shift=    0.000
 RMSDP=1.31D-06 MaxDP=5.69D-06 DE=-8.49D-09 OVMax= 6.12D-06

 Cycle   7  Pass 1  IDiag  3:
 E=-0.949622562754371E-01 Delta-E=       -0.000000000174 Rises=F Damp=F
 DIIS: error= 2.08D-07 at cycle   7 NSaved=   7.
 NSaved= 7 IEnMin= 7 EnMin=-0.949622562754371E-01 IErMin= 7 ErrMin= 2.08D-07
 ErrMax= 2.08D-07  0.00D+00 EMaxC= 1.00D-01 BMatC= 1.07D-12 BMatP= 3.33D-11
 IDIUse=1 WtCom= 1.00D+00 WtEn= 0.00D+00
 Coeff-Com:  0.175D-03-0.104D-02 0.179D-02-0.109D-01 0.950D-01-0.513D+00
 Coeff-Com:  0.143D+01
 Coeff:      0.175D-03-0.104D-02 0.179D-02-0.109D-01 0.950D-01-0.513D+00
 Coeff:      0.143D+01
 Gap=     0.343 Goal=   None    Shift=    0.000
 RMSDP=2.77D-07 MaxDP=1.54D-06 DE=-1.74D-10 OVMax= 1.55D-06

 Cycle   8  Pass 1  IDiag  3:
 E=-0.949622562813630E-01 Delta-E=       -0.000000000006 Rises=F Damp=F
 DIIS: error= 1.30D-08 at cycle   8 NSaved=   8.
 NSaved= 8 IEnMin= 8 EnMin=-0.949622562813630E-01 IErMin= 8 ErrMin= 1.30D-08
 ErrMax= 1.30D-08  0.00D+00 EMaxC= 1.00D-01 BMatC= 8.42D-15 BMatP= 1.07D-12
 IDIUse=1 WtCom= 1.00D+00 WtEn= 0.00D+00
 Coeff-Com: -0.237D-04 0.184D-03-0.238D-03 0.250D-02-0.269D-01 0.156D+00
 Coeff-Com: -0.474D+00 0.134D+01
 Coeff:     -0.237D-04 0.184D-03-0.238D-03 0.250D-02-0.269D-01 0.156D+00
 Coeff:     -0.474D+00 0.134D+01
 Gap=     0.343 Goal=   None    Shift=    0.000
 RMSDP=2.25D-08 MaxDP=8.65D-08 DE=-5.93D-12 OVMax= 0.00D+00

 Cycle   9  Pass 1  IDiag  3:
 E=-0.949622562813914E-01 Delta-E=        0.000000000000 Rises=F Damp=F
 DIIS: error= 3.09D-09 at cycle   9 NSaved=   9.
 NSaved= 9 IEnMin= 9 EnMin=-0.949622562813914E-01 IErMin= 9 ErrMin= 3.09D-09
 ErrMax= 3.09D-09  0.00D+00 EMaxC= 1.00D-01 BMatC= 2.84D-16 BMatP= 8.42D-15
 IDIUse=1 WtCom= 1.00D+00 WtEn= 0.00D+00
 Coeff-Com:  0.234D-05-0.422D-04 0.212D-04-0.845D-03 0.107D-01-0.639D-01
 Coeff-Com:  0.200D+00-0.684D+00 0.154D+01
 Coeff:      0.234D-05-0.422D-04 0.212D-04-0.845D-03 0.107D-01-0.639D-01
 Coeff:      0.200D+00-0.684D+00 0.154D+01
 Gap=     0.343 Goal=   None    Shift=    0.000
 RMSDP=4.95D-09 MaxDP=2.26D-08 DE=-2.84D-14 OVMax= 2.63D-08

 Cycle  10  Pass 2  IDiag  1:
 SCF Done:  E(RAM1) = -0.949622562814E-01 A.U. after   10 cycles
            NFock=  9  Conv=0.50D-08     -V/T= 0.9926
 KE=-1.287311584001D+01 PE=-1.078718519271D+02 EE= 5.516459831667D+01
 Leave Link  502 at Fri Mar  3 14:34:07 2017, MaxMem=    33554432 cpu:         0.0
 (Enter /n/sw/g09_D.01/g09/l701.exe)
 Compute integral first derivatives.
 ... and contract with generalized density number  0.
 Leave Link  701 at Fri Mar  3 14:34:07 2017, MaxMem=    33554432 cpu:         0.1
 (Enter /n/sw/g09_D.01/g09/l702.exe)
 L702 exits ... SP integral derivatives will be done elsewhere.
 Leave Link  702 at Fri Mar  3 14:34:07 2017, MaxMem=    33554432 cpu:         0.0
 (Enter /n/sw/g09_D.01/g09/l703.exe)
 Compute integral first derivatives, UseDBF=F ICtDFT=           0.
 Integral derivatives from FoFJK, PRISM(SPDF).
 Calling FoFJK, ICntrl=      2127 FMM=F ISym2X=0 I1Cent= 0 IOpClX= 0 NMat=1 NMatS=1 NMatT=0.
 FoFJK:  IHMeth= 8 ICntrl=    2127 DoSepK=F KAlg= 0 I1Cent=   0 FoldK=F
 IRaf=         0 NMat=   1 IRICut=       1 DoRegI=T DoRafI=F ISym2E= 0.
 FoFCou: FMM=F IPFlag=           0 FMFlag=      100000 FMFlg1=         800
         NFxFlg=           0 DoJE=F BraDBF=F KetDBF=F FulRan=T
         wScrn=  0.000000 ICntrl=    2127 IOpCl=  0 I1Cent=           0 NGrid=           0
         NMat0=    1 NMatS0=      1 NMatT0=    0 NMatD0=    1 NMtDS0=    0 NMtDT0=    0
 Symmetry not used in FoFCou.
 Leave Link  703 at Fri Mar  3 14:34:07 2017, MaxMem=    33554432 cpu:         0.0
 (Enter /n/sw/g09_D.01/g09/l716.exe)
 Dipole        =-3.28888453D+00 6.32918631D-07-4.36809856D-06
 ***** Axes restored to original set *****
 -------------------------------------------------------------------
 Center     Atomic                   Forces (Hartrees/Bohr)
 Number     Number              X              Y              Z
 -------------------------------------------------------------------
      1        6          -0.038365994    0.000000911    0.000000902
      2        1           0.004583621   -0.015574019   -0.016532778
      3        1           0.004584239   -0.006530280    0.021752692
      4        1           0.004584235    0.022103509   -0.005220740
      5       17           0.032391943   -0.000000121   -0.000000078
      6       17          -0.007778044    0.000000001    0.000000002
 -------------------------------------------------------------------
 Cartesian Forces:  Max     0.038365994 RMS     0.015261159
 Leave Link  716 at Fri Mar  3 14:34:07 2017, MaxMem=    33554432 cpu:         0.0
 (Enter /n/sw/g09_D.01/g09/l103.exe)

 GradGradGradGradGradGradGradGradGradGradGradGradGradGradGradGradGradGrad
 Berny optimization.
 Using GEDIIS/GDIIS optimizer.
 FormGI is forming the generalized inverse of G from B-inverse, IUseBI=4.
 Internal  Forces:  Max     0.032391943 RMS     0.007955129
 Search for a local minimum.
 Step number   3 out of a maximum of   44
 All quantities printed in internal units (Hartrees-Bohrs-Radians)
 RMS Force = .79551D-02 SwitMx=.10000D-02 MixMth= 1
 Mixed Optimization -- RFO/linear search
 Update second derivatives using D2CorX and points    2    3
 DE= -2.22D-02 DEPred=-2.14D-02 R= 1.04D+00
 TightC=F SS=  1.41D+00  RLast= 5.19D-01 DXNew= 8.4853D-01 1.5577D+00
 Trust test= 1.04D+00 RLast= 5.19D-01 DXMaxT set to 8.49D-01
 ITU=  1  1  0
 Use linear search instead of GDIIS.
     Eigenvalues ---    0.02721   0.03396   0.03396   0.06451   0.06451
     Eigenvalues ---    0.09645   0.09645   0.10488   0.18558   0.18558
     Eigenvalues ---    0.32118   0.48142
 RFO step:  Lambda=-8.39276722D-03 EMin= 2.72142550D-02
 Quartic linear search produced a step of  0.05835.
 Iteration  1 RMS(Cart)=  0.02844330 RMS(Int)=  0.00090688
 Iteration  2 RMS(Cart)=  0.00032607 RMS(Int)=  0.00080091
 Iteration  3 RMS(Cart)=  0.00000031 RMS(Int)=  0.00080091
 ITry= 1 IFail=0 DXMaxC= 9.84D-02 DCOld= 1.00D+10 DXMaxT= 8.49D-01 DXLimC= 3.00D+00 Rises=F
 Variable       Old X    -DE/DX   Delta X   Delta X   Delta X     New X
                                 (Linear)    (Quad)   (Total)
    R1        2.06827   0.01548  -0.00987   0.04123   0.03162   2.09990
    R2        2.06828   0.01548  -0.00987   0.04123   0.03162   2.09990
    R3        2.06828   0.01548  -0.00987   0.04123   0.03162   2.09989
    R4        3.19607   0.03239   0.01153   0.08433   0.09586   3.29193
    R5        4.79761   0.00425   0.00948   0.12677   0.13614   4.93374
    R6        4.79763   0.00425   0.00948   0.12677   0.13614   4.93377
    R7        4.79764   0.00425   0.00948   0.12677   0.13614   4.93377
    A1        1.81190   0.00337   0.00447   0.03976   0.04249   1.85440
    A2        1.81190   0.00337   0.00447   0.03976   0.04249   1.85439
    A3        2.00128  -0.00288  -0.00366  -0.03394  -0.03730   1.96398
    A4        1.81190   0.00337   0.00447   0.03976   0.04249   1.85440
    A5        2.00128  -0.00288  -0.00366  -0.03394  -0.03730   1.96398
    A6        2.00128  -0.00288  -0.00366  -0.03394  -0.03730   1.96398
    A7        1.59873  -0.00625  -0.00152  -0.03781  -0.03879   1.55995
    A8        1.59872  -0.00625  -0.00152  -0.03781  -0.03879   1.55994
    A9        1.59872  -0.00625  -0.00152  -0.03781  -0.03879   1.55993
   A10        0.69231   0.00571  -0.00361   0.00656   0.00252   0.69483
   A11        0.69231   0.00571  -0.00361   0.00656   0.00252   0.69483
   A12        0.69231   0.00571  -0.00361   0.00656   0.00252   0.69483
    D1        0.94493   0.00298   0.00356   0.03509   0.03999   0.98491
    D2       -0.94493  -0.00298  -0.00356  -0.03509  -0.03999  -0.98492
    D3        3.14159   0.00000   0.00000   0.00000   0.00000   3.14159
    D4       -0.94492  -0.00298  -0.00356  -0.03509  -0.03999  -0.98491
    D5        0.94494   0.00298   0.00356   0.03509   0.03999   0.98492
    D6       -3.14159   0.00000   0.00000   0.00000   0.00000  -3.14159
    D7        0.94492   0.00298   0.00356   0.03509   0.03999   0.98491
    D8       -0.94493  -0.00298  -0.00356  -0.03509  -0.03999  -0.98492
    D9        3.14159   0.00000   0.00000   0.00000   0.00000   3.14159
   D10       -0.56040  -0.00065   0.00043  -0.00074  -0.00028  -0.56069
   D11        0.56040   0.00065  -0.00043   0.00074   0.00029   0.56069
   D12        0.56040   0.00065  -0.00043   0.00074   0.00029   0.56069
   D13       -0.56041  -0.00065   0.00043  -0.00074  -0.00029  -0.56069
   D14       -0.56040  -0.00065   0.00043  -0.00074  -0.00029  -0.56069
   D15        0.56041   0.00065  -0.00043   0.00074   0.00029   0.56069
         Item               Value     Threshold  Converged?
 Maximum Force            0.032392     0.000450     NO 
 RMS     Force            0.007955     0.000300     NO 
 Maximum Displacement     0.098430     0.001800     NO 
 RMS     Displacement     0.028278     0.001200     NO 
 Predicted change in Energy=-4.692547D-03
 Lowest energy point so far.  Saving SCF results.
 GradGradGradGradGradGradGradGradGradGradGradGradGradGradGradGradGradGrad

 Leave Link  103 at Fri Mar  3 14:34:07 2017, MaxMem=    33554432 cpu:         0.0
 (Enter /n/sw/g09_D.01/g09/l202.exe)
                          Input orientation:                          
 ---------------------------------------------------------------------
 Center     Atomic      Atomic             Coordinates (Angstroms)
 Number     Number       Type             X           Y           Z
 ---------------------------------------------------------------------
      1          6           0        0.426647    0.000002    0.000003
      2          1           0        0.000896   -0.703801   -0.747126
      3          1           0        0.000905   -0.295127    0.983082
      4          1           0        0.000906    0.998939   -0.235944
      5         17           0        2.168660   -0.000004   -0.000002
      6         17           0       -2.399704   -0.000003   -0.000001
 ---------------------------------------------------------------------
                    Distance matrix (angstroms):
                    1          2          3          4          5
     1  C    0.000000
     2  H    1.111217   0.000000
     3  H    1.111217   1.777817   0.000000
     4  H    1.111217   1.777817   1.777817   0.000000
     5  Cl   1.742013   2.398484   2.398482   2.398481   0.000000
     6  Cl   2.826351   2.610825   2.610838   2.610840   4.568364
                    6
     6  Cl   0.000000
 This structure is nearly, but not quite of a higher symmetry.
 Consider Symm=Loose if the higher symmetry is desired.
 Stoichiometry    CH3Cl2(1-)
 Framework group  C1[X(CH3Cl2)]
 Deg. of freedom    12
 Full point group                 C1      NOp   1
 RotChk:  IX=1 Diff= 1.25D+00
 Largest Abelian subgroup         C1      NOp   1
 Largest concise Abelian subgroup C1      NOp   1
                         Standard orientation:                         
 ---------------------------------------------------------------------
 Center     Atomic      Atomic             Coordinates (Angstroms)
 Number     Number       Type             X           Y           Z
 ---------------------------------------------------------------------
      1          6           0       -0.455025    0.006614   -0.055086
      2          1           0       -0.106100    0.748748    0.694776
      3          1           0       -0.082169   -0.981992    0.289063
      4          1           0        0.091040    0.234644   -0.995628
      5         17           0       -2.184233    0.031770   -0.264405
      6         17           0        2.350550   -0.034187    0.284541
 ---------------------------------------------------------------------
 Rotational constants (GHZ):    158.6565320      1.3677132      1.3677132
 Leave Link  202 at Fri Mar  3 14:34:07 2017, MaxMem=    33554432 cpu:         0.0
 (Enter /n/sw/g09_D.01/g09/l301.exe)
 Standard basis: VSTO-6G (5D, 7F)
 Ernie: Thresh=  0.10000D-02 Tol=  0.10000D-05 Strict=F.
  NNHCO=     0 NNPyr=     0 NCTC=     0               EPep=         0.000000000
    EC=        30.645059993  ECS=         0.512889226   EG=         0.111498555
   EHC=         0.000000000  EAt=       -33.052414446  AtH=         0.613817032
 EPDDG=         0.000000000  ECC=        31.269447773 EAtT=        33.666231478
 There are    15 symmetry adapted cartesian basis functions of A   symmetry.
 There are    15 symmetry adapted basis functions of A   symmetry.
    15 basis functions,    90 primitive gaussians,    15 cartesian basis functions
    11 alpha electrons       11 beta electrons
       nuclear repulsion energy        64.9356792515 Hartrees.
 IExCor=    0 DFT=F Ex=HF Corr=None ExCW=0 ScaHFX=  1.000000
 ScaDFX=  1.000000  1.000000  1.000000  1.000000 ScalE2=  1.000000  1.000000
 IRadAn=      0 IRanWt=     -1 IRanGd=            0 ICorTp=0 IEmpDi=  4
 Integral buffers will be    131072 words long.
 Regular integral format.
 Two-electron integral symmetry is turned off.
 Leave Link  301 at Fri Mar  3 14:34:07 2017, MaxMem=    33554432 cpu:         0.0
 (Enter /n/sw/g09_D.01/g09/l302.exe)
 Do NDO integrals.
 NPDir=0 NMtPBC=     1 NCelOv=     1 NCel=       1 NClECP=     1 NCelD=      1
         NCelK=      1 NCelE2=     1 NClLst=     1 CellRange=     0.0.
 One-electron integrals computed using PRISM.
 NBasis=    15 RedAO= F EigKep=  0.00D+00  NBF=    15
 NBsUse=    15 1.00D-04 EigRej=  0.00D+00 NBFU=    15
 Leave Link  302 at Fri Mar  3 14:34:07 2017, MaxMem=    33554432 cpu:         0.1
 (Enter /n/sw/g09_D.01/g09/l303.exe)
 DipDrv:  MaxL=1.
 Leave Link  303 at Fri Mar  3 14:34:07 2017, MaxMem=    33554432 cpu:         0.0
 (Enter /n/sw/g09_D.01/g09/l401.exe)
 Initial guess from the checkpoint file:  "/scratch/Gau-27576.chk"
 B after Tr=     0.000000    0.000000    0.000000
         Rot=    0.897878    0.436050    0.050985    0.032801 Ang=  52.24 deg.
 Guess basis will be translated and rotated to current coordinates.
 JPrj=0 DoOrth=T DoCkMO=T.
 Leave Link  401 at Fri Mar  3 14:34:07 2017, MaxMem=    33554432 cpu:         0.1
 (Enter /n/sw/g09_D.01/g09/l502.exe)
 Closed shell SCF:
 Using DIIS extrapolation, IDIIS=  1040.
 Overlap will be assumed to be unity.
 Two-electron integral symmetry not used.
 Keep J ints in memory in canonical form, NReq=884770.
 IVT=       79028 IEndB=       79028 NGot=    33554432 MDV=    33474844
 LenX=    33474844 LenY=    33473962
 Requested convergence on RMS density matrix=1.00D-08 within 128 cycles.
 Requested convergence on MAX density matrix=1.00D-06.
 Requested convergence on             energy=1.00D-06.
 No special actions if energy rises.
 FoFCou: FMM=F IPFlag=           0 FMFlag=           0 FMFlg1=           0
         NFxFlg=           0 DoJE=F BraDBF=F KetDBF=F FulRan=T
         wScrn=  0.000000 ICntrl=     600 IOpCl=  2 I1Cent=           0 NGrid=           0
         NMat0=    1 NMatS0=     33 NMatT0=    0 NMatD0=    1 NMtDS0=    0 NMtDT0=    0
 Symmetry not used in FoFCou.

 Cycle   1  Pass 1  IDiag  1:
 E=-0.999503874767811E-01
 DIIS: error= 3.69D-03 at cycle   1 NSaved=   1.
 NSaved= 1 IEnMin= 1 EnMin=-0.999503874767811E-01 IErMin= 1 ErrMin= 3.69D-03
 ErrMax= 3.69D-03  0.00D+00 EMaxC= 1.00D-01 BMatC= 2.91D-04 BMatP= 2.91D-04
 IDIUse=3 WtCom= 9.63D-01 WtEn= 3.69D-02
 Coeff-Com:  0.100D+01
 Coeff-En:   0.100D+01
 Coeff:      0.100D+01
 GapD=    2.000 DampG=2.000 DampE=1.000 DampFc=2.0000 IDamp=-1.
 RMSDP=1.91D-03 MaxDP=8.06D-03              OVMax= 0.00D+00

 Cycle   2  Pass 1  IDiag  3:
 E=-0.100807103922534     Delta-E=       -0.000856716446 Rises=F Damp=F
 DIIS: error= 1.02D-03 at cycle   2 NSaved=   2.
 NSaved= 2 IEnMin= 2 EnMin=-0.100807103922534     IErMin= 2 ErrMin= 1.02D-03
 ErrMax= 1.02D-03  0.00D+00 EMaxC= 1.00D-01 BMatC= 2.68D-05 BMatP= 2.91D-04
 IDIUse=3 WtCom= 9.90D-01 WtEn= 1.02D-02
 Coeff-Com: -0.396D+00 0.140D+01
 Coeff-En:   0.000D+00 0.100D+01
 Coeff:     -0.392D+00 0.139D+01
 Gap=     0.335 Goal=   None    Shift=    0.000
 RMSDP=9.18D-04 MaxDP=4.70D-03 DE=-8.57D-04 OVMax= 6.49D-03

 Cycle   3  Pass 1  IDiag  3:
 E=-0.100913235137327     Delta-E=       -0.000106131215 Rises=F Damp=F
 DIIS: error= 1.53D-04 at cycle   3 NSaved=   3.
 NSaved= 3 IEnMin= 3 EnMin=-0.100913235137327     IErMin= 3 ErrMin= 1.53D-04
 ErrMax= 1.53D-04  0.00D+00 EMaxC= 1.00D-01 BMatC= 4.43D-07 BMatP= 2.68D-05
 IDIUse=3 WtCom= 9.98D-01 WtEn= 1.53D-03
 Coeff-Com:  0.150D+00-0.591D+00 0.144D+01
 Coeff-En:   0.000D+00 0.000D+00 0.100D+01
 Coeff:      0.150D+00-0.590D+00 0.144D+01
 Gap=     0.335 Goal=   None    Shift=    0.000
 RMSDP=1.70D-04 MaxDP=9.99D-04 DE=-1.06D-04 OVMax= 1.04D-03

 Cycle   4  Pass 1  IDiag  3:
 E=-0.100915796016366     Delta-E=       -0.000002560879 Rises=F Damp=F
 DIIS: error= 1.82D-05 at cycle   4 NSaved=   4.
 NSaved= 4 IEnMin= 4 EnMin=-0.100915796016366     IErMin= 4 ErrMin= 1.82D-05
 ErrMax= 1.82D-05  0.00D+00 EMaxC= 1.00D-01 BMatC= 1.17D-08 BMatP= 4.43D-07
 IDIUse=1 WtCom= 1.00D+00 WtEn= 0.00D+00
 Coeff-Com: -0.919D-01 0.364D+00-0.944D+00 0.167D+01
 Coeff:     -0.919D-01 0.364D+00-0.944D+00 0.167D+01
 Gap=     0.335 Goal=   None    Shift=    0.000
 RMSDP=3.83D-05 MaxDP=1.97D-04 DE=-2.56D-06 OVMax= 3.00D-04

 Cycle   5  Pass 1  IDiag  3:
 E=-0.100915886361207     Delta-E=       -0.000000090345 Rises=F Damp=F
 DIIS: error= 2.85D-06 at cycle   5 NSaved=   5.
 NSaved= 5 IEnMin= 5 EnMin=-0.100915886361207     IErMin= 5 ErrMin= 2.85D-06
 ErrMax= 2.85D-06  0.00D+00 EMaxC= 1.00D-01 BMatC= 2.07D-10 BMatP= 1.17D-08
 IDIUse=1 WtCom= 1.00D+00 WtEn= 0.00D+00
 Coeff-Com:  0.232D-01-0.920D-01 0.240D+00-0.497D+00 0.133D+01
 Coeff:      0.232D-01-0.920D-01 0.240D+00-0.497D+00 0.133D+01
 Gap=     0.335 Goal=   None    Shift=    0.000
 RMSDP=3.78D-06 MaxDP=1.93D-05 DE=-9.03D-08 OVMax= 2.37D-05

 Cycle   6  Pass 1  IDiag  3:
 E=-0.100915887481747     Delta-E=       -0.000000001121 Rises=F Damp=F
 DIIS: error= 4.76D-07 at cycle   6 NSaved=   6.
 NSaved= 6 IEnMin= 6 EnMin=-0.100915887481747     IErMin= 6 ErrMin= 4.76D-07
 ErrMax= 4.76D-07  0.00D+00 EMaxC= 1.00D-01 BMatC= 6.97D-12 BMatP= 2.07D-10
 IDIUse=1 WtCom= 1.00D+00 WtEn= 0.00D+00
 Coeff-Com: -0.672D-02 0.266D-01-0.687D-01 0.148D+00-0.521D+00 0.142D+01
 Coeff:     -0.672D-02 0.266D-01-0.687D-01 0.148D+00-0.521D+00 0.142D+01
 Gap=     0.335 Goal=   None    Shift=    0.000
 RMSDP=5.80D-07 MaxDP=2.98D-06 DE=-1.12D-09 OVMax= 3.11D-06

 Cycle   7  Pass 1  IDiag  3:
 E=-0.100915887515725     Delta-E=       -0.000000000034 Rises=F Damp=F
 DIIS: error= 4.81D-08 at cycle   7 NSaved=   7.
 NSaved= 7 IEnMin= 7 EnMin=-0.100915887515725     IErMin= 7 ErrMin= 4.81D-08
 ErrMax= 4.81D-08  0.00D+00 EMaxC= 1.00D-01 BMatC= 5.79D-14 BMatP= 6.97D-12
 IDIUse=1 WtCom= 1.00D+00 WtEn= 0.00D+00
 Coeff-Com:  0.108D-03-0.436D-03 0.955D-03-0.232D-02 0.241D-01-0.160D+00
 Coeff-Com:  0.114D+01
 Coeff:      0.108D-03-0.436D-03 0.955D-03-0.232D-02 0.241D-01-0.160D+00
 Coeff:      0.114D+01
 Gap=     0.335 Goal=   None    Shift=    0.000
 RMSDP=6.06D-08 MaxDP=2.40D-07 DE=-3.40D-11 OVMax= 4.42D-07

 Cycle   8  Pass 1  IDiag  3:
 E=-0.100915887515953     Delta-E=        0.000000000000 Rises=F Damp=F
 DIIS: error= 5.06D-09 at cycle   8 NSaved=   8.
 NSaved= 8 IEnMin= 8 EnMin=-0.100915887515953     IErMin= 8 ErrMin= 5.06D-09
 ErrMax= 5.06D-09  0.00D+00 EMaxC= 1.00D-01 BMatC= 9.60D-16 BMatP= 5.79D-14
 IDIUse=1 WtCom= 1.00D+00 WtEn= 0.00D+00
 Coeff-Com:  0.136D-04-0.507D-04 0.201D-03-0.342D-03-0.476D-02 0.479D-01
 Coeff-Com: -0.421D+00 0.138D+01
 Coeff:      0.136D-04-0.507D-04 0.201D-03-0.342D-03-0.476D-02 0.479D-01
 Coeff:     -0.421D+00 0.138D+01
 Gap=     0.335 Goal=   None    Shift=    0.000
 RMSDP=8.71D-09 MaxDP=3.56D-08 DE=-2.27D-13 OVMax= 6.55D-08

 Cycle   9  Pass 2  IDiag  1:
 SCF Done:  E(RAM1) = -0.100915887516     A.U. after    9 cycles
            NFock=  8  Conv=0.87D-08     -V/T= 0.9921
 KE=-1.282520241070D+01 PE=-1.068802418522D+02 EE= 5.466884912390D+01
 Leave Link  502 at Fri Mar  3 14:34:07 2017, MaxMem=    33554432 cpu:         0.0
 (Enter /n/sw/g09_D.01/g09/l701.exe)
 Compute integral first derivatives.
 ... and contract with generalized density number  0.
 Leave Link  701 at Fri Mar  3 14:34:07 2017, MaxMem=    33554432 cpu:         0.1
 (Enter /n/sw/g09_D.01/g09/l702.exe)
 L702 exits ... SP integral derivatives will be done elsewhere.
 Leave Link  702 at Fri Mar  3 14:34:07 2017, MaxMem=    33554432 cpu:         0.0
 (Enter /n/sw/g09_D.01/g09/l703.exe)
 Compute integral first derivatives, UseDBF=F ICtDFT=           0.
 Integral derivatives from FoFJK, PRISM(SPDF).
 Calling FoFJK, ICntrl=      2127 FMM=F ISym2X=0 I1Cent= 0 IOpClX= 0 NMat=1 NMatS=1 NMatT=0.
 FoFJK:  IHMeth= 8 ICntrl=    2127 DoSepK=F KAlg= 0 I1Cent=   0 FoldK=F
 IRaf=         0 NMat=   1 IRICut=       1 DoRegI=T DoRafI=F ISym2E= 0.
 FoFCou: FMM=F IPFlag=           0 FMFlag=      100000 FMFlg1=         800
         NFxFlg=           0 DoJE=F BraDBF=F KetDBF=F FulRan=T
         wScrn=  0.000000 ICntrl=    2127 IOpCl=  0 I1Cent=           0 NGrid=           0
         NMat0=    1 NMatS0=      1 NMatT0=    0 NMatD0=    1 NMtDS0=    0 NMtDT0=    0
 Symmetry not used in FoFCou.
 Leave Link  703 at Fri Mar  3 14:34:07 2017, MaxMem=    33554432 cpu:         0.0
 (Enter /n/sw/g09_D.01/g09/l716.exe)
 Dipole        =-3.26518021D+00 4.74873172D-02-3.95261907D-01
 ***** Axes restored to original set *****
 -------------------------------------------------------------------
 Center     Atomic                   Forces (Hartrees/Bohr)
 Number     Number              X              Y              Z
 -------------------------------------------------------------------
      1        6          -0.026014391   -0.000000105   -0.000000196
      2        1           0.007626525   -0.004477157   -0.004752690
      3        1           0.007626325   -0.001877578    0.006253958
      4        1           0.007626330    0.006354882   -0.001501033
      5       17           0.007385345   -0.000000048   -0.000000043
      6       17          -0.004250134    0.000000005    0.000000003
 -------------------------------------------------------------------
 Cartesian Forces:  Max     0.026014391 RMS     0.007643985
 Leave Link  716 at Fri Mar  3 14:34:07 2017, MaxMem=    33554432 cpu:         0.0
 (Enter /n/sw/g09_D.01/g09/l103.exe)

 GradGradGradGradGradGradGradGradGradGradGradGradGradGradGradGradGradGrad
 Berny optimization.
 Using GEDIIS/GDIIS optimizer.
 FormGI is forming the generalized inverse of G from B-inverse, IUseBI=4.
 Internal  Forces:  Max     0.007385345 RMS     0.002523433
 Search for a local minimum.
[...]
     11 -0.217069D-02  0.178050D-02 -0.122038D-01  0.106258D-01 -0.804834D-01
     12  0.469597D-02 -0.418196D-02  0.271006D-01 -0.994875D-02  0.190100D-01
     13 -0.254338D-02 -0.274301D-01 -0.100462D-02  0.334682D-02 -0.274301D-01
     14 -0.108012D-02 -0.557917D-02  0.257573D-02  0.596014D-03  0.188844D-01
     15  0.160800D-02  0.185846D-01  0.595940D-03  0.769268D-03 -0.446037D-02
     16  0.862209D-03 -0.305806D-02  0.340569D-03 -0.113443D-02 -0.305804D-02
     17 -0.227218D-03 -0.117108D-03 -0.384825D-03  0.125362D-03  0.396403D-03
     18 -0.588404D-03  0.390102D-03  0.125371D-03 -0.764776D-03 -0.936299D-04
               11            12            13            14            15 
     11  0.307024D+00
     12 -0.628298D-01  0.558591D-01
     13  0.340083D-02 -0.803153D-03  0.225152D+00
     14  0.704678D-03  0.484119D-03  0.000000D+00  0.198054D-01
     15  0.484183D-03  0.264029D-02  0.000000D+00  0.000000D+00  0.198054D-01
     16 -0.115272D-02  0.272269D-03 -0.108434D-01  0.000000D+00  0.000000D+00
     17 -0.778348D-03  0.101845D-03  0.000000D+00  0.963275D-03  0.000000D+00
     18  0.101837D-03 -0.371241D-03  0.000000D+00  0.000000D+00  0.963267D-03
               16            17            18 
     16  0.142639D-01
     17  0.000000D+00  0.545950D-03
     18  0.000000D+00  0.000000D+00  0.545946D-03
 FormGI is forming the generalized inverse of G from B-inverse, IUseBI=4.
 Force constants in internal coordinates: 
                1             2             3             4             5 
      1  0.253889D+00
      2  0.167478D-01  0.253890D+00
      3  0.167478D-01  0.167480D-01  0.253890D+00
      4  0.124533D-01  0.124533D-01  0.124533D-01  0.225152D+00
      5  0.571237D-02  0.553602D-02  0.553595D-02  0.342128D-02  0.563236D-02
      6  0.553651D-02  0.571323D-02  0.553598D-02  0.342132D-02  0.307285D-03
      7  0.553652D-02  0.553606D-02  0.571336D-02  0.342132D-02  0.307275D-03
      8 -0.272093D-02 -0.272114D-02 -0.385135D-02 -0.903333D-02  0.251138D-02
      9 -0.272091D-02 -0.385139D-02 -0.272114D-02 -0.903332D-02  0.251137D-02
     10  0.124296D-01 -0.118516D-02 -0.118519D-02  0.977790D-02 -0.612664D-02
     11 -0.385170D-02 -0.272093D-02 -0.272097D-02 -0.903329D-02 -0.539632D-02
     12 -0.118496D-02  0.124298D-01 -0.118516D-02  0.977798D-02  0.326551D-02
     13 -0.118496D-02 -0.118513D-02  0.124299D-01  0.977799D-02  0.326551D-02
     14 -0.386965D-01 -0.294650D-02 -0.294655D-02  0.885888D-02 -0.245151D-02
     15 -0.294615D-02 -0.386961D-01 -0.294650D-02  0.885890D-02  0.324919D-04
     16 -0.294614D-02 -0.294645D-02 -0.386960D-01  0.885891D-02  0.325115D-04
     17  0.443378D-01  0.443378D-01  0.397510D-02  0.155817D-02  0.210346D-02
     18  0.443378D-01  0.397507D-02  0.443378D-01  0.155817D-02  0.210345D-02
     19  0.397489D-02  0.443378D-01  0.443378D-01  0.155817D-02  0.524663D-03
     20 -0.456804D-02 -0.107414D-01  0.223780D-02 -0.127057D-01 -0.164932D-02
     21  0.456806D-02 -0.223775D-02  0.107414D-01  0.127057D-01  0.164932D-02
     22  0.000000D+00  0.206853D-02 -0.206851D-02  0.000000D+00  0.000000D+00
     23  0.107411D-01  0.456785D-02 -0.223781D-02  0.127057D-01  0.109717D-03
     24  0.223744D-02 -0.456801D-02 -0.107416D-01 -0.127058D-01  0.123357D-02
     25 -0.206868D-02  0.000000D+00  0.206851D-02  0.000000D+00  0.414609D-02
     26 -0.107411D-01  0.223776D-02 -0.456785D-02 -0.127057D-01 -0.109708D-03
     27 -0.223744D-02  0.107415D-01  0.456798D-02  0.127058D-01 -0.123357D-02
     28  0.206868D-02 -0.206853D-02  0.000000D+00  0.000000D+00 -0.414609D-02
     29  0.307112D-01 -0.380516D-01 -0.293581D-02 -0.172818D-03  0.116032D-02
     30 -0.307113D-01  0.293582D-02  0.380516D-01  0.172830D-03 -0.116032D-02
     31  0.380515D-01 -0.307112D-01  0.293577D-02  0.172768D-03 -0.124895D-02
     32 -0.293582D-02  0.307115D-01 -0.380518D-01 -0.172871D-03 -0.293405D-02
     33 -0.380516D-01 -0.293577D-02  0.307112D-01 -0.172775D-03  0.124894D-02
     34  0.293582D-02  0.380518D-01 -0.307115D-01  0.172865D-03  0.293407D-02
                6             7             8             9            10 
      6  0.563244D-02
      7  0.307217D-03  0.563245D-02
      8  0.251144D-02 -0.539638D-02  0.170687D-01
      9 -0.539637D-02  0.251144D-02 -0.583304D-02  0.170687D-01
     10  0.326551D-02  0.326550D-02 -0.260116D-02 -0.260117D-02  0.280159D-01
     11  0.251136D-02  0.251136D-02 -0.583316D-02 -0.583317D-02 -0.645453D-03
     12 -0.612663D-02  0.326549D-02 -0.260113D-02 -0.645507D-03 -0.108430D-01
     13  0.326550D-02 -0.612662D-02 -0.645517D-03 -0.260113D-02 -0.108430D-01
     14  0.323893D-04  0.323934D-04 -0.287147D-02 -0.287146D-02  0.325446D-02
     15 -0.245164D-02  0.325179D-04 -0.287147D-02  0.947868D-03  0.967932D-03
     16  0.325330D-04 -0.245166D-02  0.947855D-03 -0.287147D-02  0.967936D-03
     17  0.210369D-02  0.524758D-03  0.286580D-02 -0.232531D-02  0.146783D-02
     18  0.524745D-03  0.210371D-02 -0.232530D-02  0.286581D-02  0.146782D-02
     19  0.210359D-02  0.210362D-02 -0.232538D-02 -0.232539D-02 -0.100374D-02
     20 -0.109796D-03  0.123365D-02 -0.374244D-02  0.453888D-02 -0.237713D-02
     21 -0.123365D-02  0.109800D-03 -0.453889D-02  0.374245D-02  0.237713D-02
     22 -0.414612D-02  0.414611D-02  0.107953D-02 -0.107953D-02  0.000000D+00
     23  0.164933D-02 -0.123363D-02  0.374234D-02 -0.680227D-02  0.545806D-02
     24 -0.164933D-02 -0.109739D-03  0.453886D-02  0.680235D-02 -0.389963D-03
     25  0.000000D+00 -0.414610D-02 -0.107960D-02  0.000000D+00 -0.204429D-01
     26  0.123362D-02 -0.164934D-02  0.680226D-02 -0.374234D-02 -0.545806D-02
     27  0.109730D-03  0.164933D-02 -0.680234D-02 -0.453885D-02  0.389964D-03
     28  0.414611D-02  0.000000D+00  0.000000D+00  0.107960D-02  0.204429D-01
     29  0.124891D-02 -0.293404D-02  0.872660D-02 -0.420414D-02  0.201889D-02
     30  0.293402D-02 -0.124889D-02  0.420415D-02 -0.872661D-02 -0.201888D-02
     31 -0.116038D-02  0.293417D-02 -0.872653D-02  0.432442D-02  0.217568D-02
     32  0.116042D-02  0.124880D-02 -0.420424D-02 -0.432442D-02 -0.574655D-04
     33 -0.293418D-02  0.116039D-02 -0.432440D-02  0.872654D-02 -0.217570D-02
     34 -0.124881D-02 -0.116043D-02  0.432441D-02  0.420424D-02  0.574722D-04
               11            12            13            14            15 
     11  0.170688D-01
     12 -0.260118D-02  0.280159D-01
     13 -0.260117D-02 -0.108430D-01  0.280159D-01
     14  0.947966D-03  0.967887D-03  0.967889D-03  0.920802D-02
     15 -0.287141D-02  0.325444D-02  0.967910D-03  0.268445D-02  0.920787D-02
     16 -0.287141D-02  0.967913D-03  0.325444D-02  0.268445D-02  0.268446D-02
     17 -0.232542D-02  0.146794D-02 -0.100371D-02 -0.757123D-02 -0.757109D-02
     18 -0.232543D-02 -0.100372D-02  0.146795D-02 -0.757124D-02 -0.771583D-03
     19  0.286586D-02  0.146788D-02  0.146790D-02 -0.771610D-03 -0.757112D-02
     20  0.680234D-02 -0.545814D-02 -0.389902D-03 -0.153608D-02 -0.131805D-02
     21 -0.680235D-02  0.389906D-03  0.545815D-02  0.153608D-02  0.389019D-02
     22  0.000000D+00  0.204429D-01 -0.204429D-01  0.000000D+00  0.160225D-02
     23 -0.453885D-02  0.237718D-02  0.389910D-03  0.131808D-02  0.153613D-02
     24 -0.374241D-02 -0.237712D-02 -0.545812D-02 -0.389015D-02 -0.153612D-02
     25  0.107957D-02  0.000000D+00  0.204429D-01 -0.160221D-02  0.000000D+00
     26  0.453884D-02 -0.389914D-03 -0.237719D-02 -0.131809D-02 -0.389019D-02
     27  0.374239D-02  0.545810D-02  0.237714D-02  0.389015D-02  0.131808D-02
     28 -0.107958D-02 -0.204429D-01  0.000000D+00  0.160221D-02 -0.160224D-02
     29 -0.432451D-02 -0.217567D-02 -0.574938D-04 -0.516238D-02  0.513936D-02
     30  0.432450D-02  0.574836D-04  0.217568D-02  0.516237D-02 -0.178806D-02
     31  0.420418D-02 -0.201896D-02  0.575365D-04 -0.513941D-02  0.516235D-02
     32  0.872667D-02  0.201892D-02 -0.217578D-02  0.178804D-02 -0.516232D-02
     33 -0.420419D-02 -0.575359D-04  0.201897D-02  0.513941D-02  0.178797D-02
     34 -0.872666D-02  0.217579D-02 -0.201893D-02 -0.178803D-02 -0.513938D-02
               16            17            18            19            20 
     16  0.920785D-02
     17 -0.771578D-03  0.154009D-01
     18 -0.757108D-02  0.742750D-02  0.154009D-01
     19 -0.757110D-02  0.742745D-02  0.742744D-02  0.154009D-01
     20 -0.389019D-02 -0.337401D-02  0.732530D-03  0.130920D-03  0.702342D-02
     21  0.131805D-02 -0.732520D-03  0.337402D-02 -0.130904D-03 -0.248965D-02
     22 -0.160225D-02  0.894596D-03 -0.894591D-03  0.000000D+00 -0.311698D-02
     23  0.389020D-02  0.337391D-02 -0.130941D-03 -0.732558D-03 -0.641487D-02
     24 -0.131808D-02  0.732483D-03  0.130839D-03 -0.337401D-02  0.183233D-02
     25  0.160224D-02 -0.894624D-03  0.000000D+00  0.894593D-03  0.186039D-02
     26 -0.153613D-02  0.130931D-03 -0.337391D-02  0.732550D-03  0.183229D-02
     27  0.153613D-02 -0.130842D-03 -0.732487D-03  0.337400D-02 -0.178345D-02
     28  0.000000D+00  0.000000D+00  0.894624D-03 -0.894598D-03  0.125662D-02
     29  0.178805D-02  0.705265D-03  0.380109D-02 -0.786211D-02 -0.261605D-02
     30 -0.513935D-02 -0.380109D-02 -0.705270D-03  0.786211D-02 -0.346220D-03
     31 -0.178798D-02 -0.705244D-03  0.786207D-02 -0.380107D-02  0.444665D-02
     32  0.513937D-02  0.380108D-02 -0.786213D-02  0.705285D-03  0.650371D-03
     33 -0.516234D-02 -0.786207D-02  0.705246D-03  0.380107D-02  0.224412D-02
     34  0.516232D-02  0.786213D-02 -0.380108D-02 -0.705281D-03 -0.437889D-02
               21            22            23            24            25 
     21  0.702342D-02
     22 -0.311699D-02  0.222377D-01
     23  0.183229D-02  0.186036D-02  0.702329D-02
     24 -0.178345D-02  0.125662D-02 -0.248971D-02  0.702338D-02
     25  0.125663D-02 -0.111188D-01 -0.311698D-02 -0.311696D-02  0.222377D-01
     26 -0.641486D-02  0.186036D-02 -0.178345D-02  0.183235D-02  0.125658D-02
     27  0.183234D-02  0.125661D-02  0.183234D-02 -0.641485D-02  0.186035D-02
     28  0.186040D-02 -0.111188D-01  0.125658D-02  0.186036D-02 -0.111188D-01
     29 -0.346222D-03  0.852448D-03  0.444657D-02  0.224406D-02 -0.156116D-02
     30 -0.261604D-02  0.852446D-03  0.650358D-03 -0.437885D-02  0.708658D-03
     31  0.224412D-02 -0.156113D-02 -0.261602D-02 -0.346237D-03  0.852459D-03
     32 -0.437890D-02  0.708676D-03 -0.346223D-03 -0.261596D-02  0.852444D-03
     33  0.444666D-02 -0.156112D-02 -0.437878D-02  0.650376D-03  0.708722D-03
     34  0.650370D-03  0.708683D-03  0.224409D-02  0.444662D-02 -0.156112D-02
               26            27            28            29            30 
     26  0.702329D-02
     27 -0.248972D-02  0.702336D-02
     28 -0.311698D-02 -0.311696D-02  0.222377D-01
     29  0.650359D-03 -0.437883D-02  0.708665D-03  0.150444D-01
     30  0.444656D-02  0.224405D-02 -0.156116D-02 -0.231357D-02  0.150445D-01
     31 -0.437877D-02  0.650375D-03  0.708719D-03  0.489805D-02 -0.733612D-02
     32  0.224408D-02  0.444661D-02 -0.156113D-02 -0.733618D-02 -0.295673D-02
     33 -0.261600D-02 -0.346237D-03  0.852459D-03 -0.733611D-02  0.489806D-02
     34 -0.346224D-03 -0.261595D-02  0.852446D-03 -0.295673D-02 -0.733618D-02
               31            32            33            34 
     31  0.150444D-01
     32 -0.231354D-02  0.150446D-01
     33 -0.295674D-02 -0.733616D-02  0.150444D-01
     34 -0.733615D-02  0.489814D-02 -0.231354D-02  0.150446D-01
 Leave Link  716 at Fri Mar  3 14:34:10 2017, MaxMem=    33554432 cpu:         0.0
 (Enter /n/sw/g09_D.01/g09/l103.exe)

 GradGradGradGradGradGradGradGradGradGradGradGradGradGradGradGradGradGrad
 Berny optimization.
 Red2BG is reusing G-inverse.
 Internal  Forces:  Max     0.000293901 RMS     0.000062266
 Search for a local minimum.
 Step number   1 out of a maximum of    2
 All quantities printed in internal units (Hartrees-Bohrs-Radians)
 Second derivative matrix not updated -- analytic derivatives used.
 ITU=  0
     Eigenvalues ---    0.00120   0.00120   0.00524   0.03022   0.05022
     Eigenvalues ---    0.05022   0.07420   0.07420   0.22952   0.28161
     Eigenvalues ---    0.28161   0.33249
 Angle between quadratic step and forces=  57.71 degrees.
 Linear search not attempted -- first point.
 Iteration  1 RMS(Cart)=  0.00220737 RMS(Int)=  0.00000247
 Iteration  2 RMS(Cart)=  0.00000140 RMS(Int)=  0.00000172
 Iteration  3 RMS(Cart)=  0.00000000 RMS(Int)=  0.00000172
 ITry= 1 IFail=0 DXMaxC= 1.13D-02 DCOld= 1.00D+10 DXMaxT= 3.00D-01 DXLimC= 3.00D+00 Rises=F
 Variable       Old X    -DE/DX   Delta X   Delta X   Delta X     New X
                                 (Linear)    (Quad)   (Total)
    R1        2.09618  -0.00003   0.00000   0.00010   0.00010   2.09628
    R2        2.09618  -0.00003   0.00000   0.00011   0.00010   2.09628
    R3        2.09618  -0.00003   0.00000   0.00011   0.00010   2.09628
    R4        3.37567  -0.00029   0.00000  -0.00324  -0.00324   3.37243
    R5        5.18204   0.00005   0.00000   0.01161   0.01161   5.19365
    R6        5.18206   0.00005   0.00000   0.01159   0.01159   5.19365
    R7        5.18206   0.00005   0.00000   0.01159   0.01159   5.19365
    A1        1.94376  -0.00004   0.00000  -0.00150  -0.00150   1.94225
    A2        1.94376  -0.00004   0.00000  -0.00150  -0.00150   1.94225
    A3        1.87622   0.00004   0.00000   0.00162   0.00162   1.87784
    A4        1.94376  -0.00004   0.00000  -0.00150  -0.00150   1.94225
    A5        1.87622   0.00004   0.00000   0.00162   0.00163   1.87784
    A6        1.87622   0.00004   0.00000   0.00162   0.00163   1.87784
    A7        1.48016   0.00005   0.00000   0.00275   0.00275   1.48291
    A8        1.48015   0.00005   0.00000   0.00276   0.00276   1.48291
    A9        1.48015   0.00005   0.00000   0.00276   0.00276   1.48291
   A10        0.68130  -0.00003   0.00000  -0.00191  -0.00191   0.67939
   A11        0.68130  -0.00003   0.00000  -0.00191  -0.00191   0.67939
   A12        0.68130  -0.00003   0.00000  -0.00191  -0.00191   0.67939
    D1        1.09063  -0.00005   0.00000  -0.00211  -0.00211   1.08853
    D2       -1.09064   0.00005   0.00000   0.00211   0.00211  -1.08853
    D3        3.14159   0.00000   0.00000   0.00000   0.00000   3.14159
    D4       -1.09063   0.00005   0.00000   0.00210   0.00210  -1.08853
    D5        1.09064  -0.00005   0.00000  -0.00212  -0.00212   1.08853
    D6       -3.14159   0.00000   0.00000  -0.00001  -0.00001  -3.14159
    D7        1.09063  -0.00005   0.00000  -0.00210  -0.00210   1.08853
    D8       -1.09064   0.00005   0.00000   0.00212   0.00211  -1.08853
    D9        3.14159   0.00000   0.00000   0.00001   0.00001   3.14159
   D10       -0.55917   0.00000   0.00000   0.00021   0.00021  -0.55896
   D11        0.55917   0.00000   0.00000  -0.00021  -0.00021   0.55896
   D12        0.55917   0.00000   0.00000  -0.00021  -0.00021   0.55896
   D13       -0.55917   0.00000   0.00000   0.00021   0.00021  -0.55896
   D14       -0.55917   0.00000   0.00000   0.00021   0.00021  -0.55896
   D15        0.55917   0.00000   0.00000  -0.00021  -0.00021   0.55896
         Item               Value     Threshold  Converged?
 Maximum Force            0.000294     0.000450     YES
 RMS     Force            0.000062     0.000300     YES
 Maximum Displacement     0.011349     0.001800     NO 
 RMS     Displacement     0.002208     0.001200     NO 
 Predicted change in Energy=-2.145566D-06
 GradGradGradGradGradGradGradGradGradGradGradGradGradGradGradGradGradGrad

 Leave Link  103 at Fri Mar  3 14:34:10 2017, MaxMem=    33554432 cpu:         0.0
 (Enter /n/sw/g09_D.01/g09/l9999.exe)
 1\1\GINC-DAE13\Freq\RAM1\ZDO\C1H3Cl2(1-)\ROOT\03-Mar-2017\0\\#P Geom=A
 llCheck Guess=TCheck SCRF=Check GenChk RAM1/ZDO Freq\\Title Card Requi
 red\\-1,1\C,0.3793498843,0.0000021804,0.0000032994\H,0.0458002895,-0.7
 253950608,-0.7700485392\H,0.0458080938,-0.3041826635,1.0132439997\H,0.
 045809447,1.029587766,-0.2431826559\Cl,2.1656785667,-0.0000041407,-0.0
 000017836\Cl,-2.4841362814,-0.0000030814,-0.0000013204\\Version=EM64L-
 G09RevD.01\State=1-A\HF=-0.1038967\RMSD=3.769e-10\RMSF=1.679e-04\ZeroP
 oint=0.0370719\Thermal=0.0423298\Dipole=3.312697,0.0000038,0.0000035\D
 ipoleDeriv=1.5966217,-0.0000052,-0.0000039,-0.0000044,0.0040342,-0.000
 0006,-0.0000035,-0.0000006,0.0040342,0.0139634,0.0676141,0.0717763,0.0
 400842,0.0804357,-0.0022409,0.0425514,-0.0022412,0.0801677,0.0139591,0
 .0283529,-0.0944418,0.016809,0.0821744,0.0012366,-0.0559877,0.0012372,
 0.0784264,0.0139583,-0.0959651,0.0226672,-0.0568908,0.0782922,0.001005
 ,0.0134383,0.0010044,0.0823084,-1.2677161,0.0000028,0.0000022,0.000002
 6,-0.309444,0.,0.0000021,0.,-0.309444,-1.3707873,-0.0000001,0.,-0.0000
 003,-0.935493,0.0000002,-0.0000004,0.0000002,-0.9354928\Polar=35.02658
 96,-0.0000505,8.3881689,-0.0000395,-0.0000031,8.3881673\HyperPolar=981
 .865571,0.0001794,-15.9616515,15.3511579,0.0002554,-0.00013,-12.821213
 4,-15.961701,-15.3509015,12.8214243\PG=C01 [X(C1H3Cl2)]\NImag=0\\0.273
 97084,0.00000065,0.50672947,0.00000052,-0.00000040,0.50672927,-0.04923
 596,-0.04931675,-0.05235262,0.06698717,-0.05142754,-0.15321266,-0.1200
 0073,0.05670611,0.17306182,-0.05459332,-0.12000071,-0.16755849,0.06019
 689,0.14017126,0.18981901,-0.04923508,-0.02067987,0.06888461,0.0063685
 9,0.00081726,-0.00447136,0.06698616,-0.02156496,-0.06004824,0.06621246
 ,0.00273142,0.00582351,-0.01669250,0.02377839,0.06423767,0.07183287,0.
 06621249,-0.26072447,0.00363288,-0.00021778,-0.02797604,-0.07920599,-0
 .07734190,0.29864482,-0.04923494,0.06999555,-0.01653282,0.00636858,-0.
 00451217,0.00054899,0.00636856,-0.00428078,0.00152783,0.06698601,0.072
 99136,-0.26789759,0.05378865,0.00346340,-0.02684852,-0.00217069,0.0017
 8050,-0.01220380,0.01062581,-0.08048338,0.30702365,-0.01724045,0.05378
 864,-0.05287532,0.00294329,-0.01864543,0.00469597,-0.00418196,0.027100
 62,-0.00994875,0.01901000,-0.06282979,0.05585908,-0.13201832,0.0000004
 6,0.00000035,-0.02743024,-0.00239585,-0.00254338,-0.02743014,-0.001004
 62,0.00334682,-0.02743013,0.00340083,-0.00080315,0.22515203,0.00000038
 ,-0.02578632,0.,-0.01330488,0.00173714,-0.00108012,-0.00557917,0.00257
 573,0.00059601,0.01888439,0.00070468,0.00048412,-0.00000076,0.01980543
 ,0.00000032,0.,-0.02578630,-0.01412393,-0.00108011,0.00160800,0.018584
 59,0.00059594,0.00076927,-0.00446037,0.00048418,0.00264029,-0.00000062
 ,0.,0.01980541,0.00575368,-0.00000006,-0.00000004,-0.00305812,0.000812
 21,0.00086221,-0.00305806,0.00034057,-0.00113443,-0.00305804,-0.001152
 72,0.00027227,-0.01084345,0.00000002,0.,0.01426394,0.00000004,0.000215
 22,0.,-0.00027930,-0.00056124,-0.00022722,-0.00011711,-0.00038482,0.00
 012536,0.00039640,-0.00077835,0.00010184,-0.00000001,0.00096327,0.,0.,
 0.00054595,0.00000007,0.,0.00021524,-0.00029650,-0.00022722,-0.0005884
 0,0.00039010,0.00012537,-0.00076478,-0.00009363,0.00010184,-0.00037124
 ,-0.00000002,0.,0.00096327,-0.00000001,0.,0.00054595\\-0.00061043,0.00
 000018,0.00000014,0.00005107,-0.00004672,-0.00004959,0.00005121,-0.000
 01951,0.00006504,0.00005123,0.00006606,-0.00001559,0.00029390,0.000000
 01,0.,0.00016302,-0.00000002,-0.00000001\\\@


 I MET A TRAVELLER FROM AN ANTIQUE LAND
 WHO SAID... TWO VAST AND TRUNKLESS LEGS OF STONE
 STAND IN THE DESERT..... NEAR THEM,  ON THE SAND,
 HALF SUNK,  A SHATTERED VISAGE LIES,  WHOSE FROWN,
 AND WRINKLED LIP,  AND SNEER OF COLD COMMAND
 TELL THAT ITS SCULPTOR WELL THOSE PASSIONS READ
 WHICH YET SURVIVE,  STAMPED ON THESE LIFELESS THINGS
 THE HAND THAT MOCKED THEM,  AND THE HEART THAT FED-
 AND ON THE PEDESTAL THESE WORDS APPEAR 
 MY NAME IS OZYMANDIAS, KING OF KINGS--   
 LOOK ON MY WORKS YE MIGHTY AND DESPAIR. 
 NOTHING BESIDE REMAINS,  ROUND THE DECAY 
 OF THAT COLOSSAL WRECK,  BOUNDLESS AND BARE
 THE LONE AND LEVEL SANDS STRETCH FAR AWAY.
                                    SHELLEY
 Job cpu time:       0 days  0 hours  0 minutes  0.9 seconds.
 File lengths (MBytes):  RWF=      5 Int=      0 D2E=      0 Chk=      2 Scr=      1
 Normal termination of Gaussian 09 at Fri Mar  3 14:34:10 2017.
