 Entering Gaussian System, Link 0=g09
 Input=MeCl_sm.gjf
 Output=MeCl_sm.out
 Initial command:
 /n/sw/g09_D.01/g09/l1.exe "/scratch/Gau-27553.inp" -scrdir="/scratch/"
 Entering Link 1 = /n/sw/g09_D.01/g09/l1.exe PID=     27554.
  
 Copyright (c) 1988,1990,1992,1993,1995,1998,2003,2009,2013,
            Gaussian, Inc.  All Rights Reserved.
  
 This is part of the Gaussian(R) 09 program.  It is based on
 the Gaussian(R) 03 system (copyright 2003, Gaussian, Inc.),
 the Gaussian(R) 98 system (copyright 1998, Gaussian, Inc.),
 the Gaussian(R) 94 system (copyright 1995, Gaussian, Inc.),
 the Gaussian 92(TM) system (copyright 1992, Gaussian, Inc.),
 the Gaussian 90(TM) system (copyright 1990, Gaussian, Inc.),
 the Gaussian 88(TM) system (copyright 1988, Gaussian, Inc.),
 the Gaussian 86(TM) system (copyright 1986, Carnegie Mellon
 University), and the Gaussian 82(TM) system (copyright 1983,
 Carnegie Mellon University). Gaussian is a federally registered
 trademark of Gaussian, Inc.
  
 This software contains proprietary and confidential information,
 including trade secrets, belonging to Gaussian, Inc.
  
 This software is provided under written license and may be
 used, copied, transmitted, or stored only in accord with that
 written license.
  
 The following legend is applicable only to US Government
 contracts under FAR:
  
                    RESTRICTED RIGHTS LEGEND
  
 Use, reproduction and disclosure by the US Government is
 subject to restrictions as set forth in subparagraphs (a)
 and (c) of the Commercial Computer Software - Restricted
 Rights clause in FAR 52.227-19.
  
 Gaussian, Inc.
 340 Quinnipiac St., Bldg. 40, Wallingford CT 06492
  
  
 ---------------------------------------------------------------
 Warning -- This program may not be used in any manner that
 competes with the business of Gaussian, Inc. or will provide
 assistance to any competitor of Gaussian, Inc.  The licensee
 of this program is prohibited from giving any competitor of
 Gaussian, Inc. access to this program.  By using this program,
 the user acknowledges that Gaussian, Inc. is engaged in the
 business of creating and licensing software in the field of
 computational chemistry and represents and warrants to the
 licensee that it is not a competitor of Gaussian, Inc. and that
 it will not use this program in any manner prohibited above.
 ---------------------------------------------------------------
  

 Cite this work as:
 Gaussian 09, Revision D.01,
 M. J. Frisch, G. W. Trucks, H. B. Schlegel, G. E. Scuseria, 
 M. A. Robb, J. R. Cheeseman, G. Scalmani, V. Barone, B. Mennucci, 
 G. A. Petersson, H. Nakatsuji, M. Caricato, X. Li, H. P. Hratchian, 
 A. F. Izmaylov, J. Bloino, G. Zheng, J. L. Sonnenberg, M. Hada, 
 M. Ehara, K. Toyota, R. Fukuda, J. Hasegawa, M. Ishida, T. Nakajima, 
 Y. Honda, O. Kitao, H. Nakai, T. Vreven, J. A. Montgomery, Jr., 
 J. E. Peralta, F. Ogliaro, M. Bearpark, J. J. Heyd, E. Brothers, 
 K. N. Kudin, V. N. Staroverov, T. Keith, R. Kobayashi, J. Normand, 
 K. Raghavachari, A. Rendell, J. C. Burant, S. S. Iyengar, J. Tomasi, 
 M. Cossi, N. Rega, J. M. Millam, M. Klene, J. E. Knox, J. B. Cross, 
 V. Bakken, C. Adamo, J. Jaramillo, R. Gomperts, R. E. Stratmann, 
 O. Yazyev, A. J. Austin, R. Cammi, C. Pomelli, J. W. Ochterski, 
 R. L. Martin, K. Morokuma, V. G. Zakrzewski, G. A. Voth, 
 P. Salvador, J. J. Dannenberg, S. Dapprich, A. D. Daniels, 
 O. Farkas, J. B. Foresman, J. V. Ortiz, J. Cioslowski, 
 and D. J. Fox, Gaussian, Inc., Wallingford CT, 2013.
 
 ******************************************
 Gaussian 09:  EM64L-G09RevD.01 24-Apr-2013
                 3-Mar-2017 
 ******************************************
 -----------------------
 #p opt freq=noraman am1
 -----------------------
 1/14=-1,18=20,19=15,26=1,38=1/1,3;
 2/9=110,12=2,17=6,18=5,40=1/2;
 3/5=2,16=1,25=1,41=700000,71=1/1,2,3;
 4/35=1/1;
 5/5=2,35=1,38=5/2;
 6/7=2,8=2,9=2,10=2,28=1/1;
 7//1,2,3,16;
 1/14=-1,18=20,19=15,26=1/3(2);
 2/9=110/2;
 99//99;
 2/9=110/2;
 3/5=2,16=1,25=1,41=700000,71=1,135=20/1,2,3;
 4/5=5,16=3,35=1/1;
 5/5=2,35=1,38=5/2;
 7//1,2,3,16;
 1/14=-1,18=20,19=15,26=1/3(-5);
 2/9=110/2;
 6/7=2,8=2,9=2,10=2,19=2,28=1/1;
 99/9=1/99;
 Leave Link    1 at Fri Mar  3 14:33:29 2017, MaxMem=           0 cpu:         0.0
 (Enter /n/sw/g09_D.01/g09/l101.exe)
 -------------------
 Title Card Required
 -------------------
 Symbolic Z-matrix:
 Charge = -1 Multiplicity = 1
 C                    -0.55698   0.        0. 
 H                     0.05843  -0.75229  -0.79859 
 H                     0.05844  -0.31546   1.0508 
 H                     0.05844   1.06775  -0.2522 
 Cl                    2.24669  0.        0. 
 Cl                   -2.0611   0.        0. 
 
 Add virtual bond connecting atoms Cl5        and H2         Dist= 4.63D+00.
 Add virtual bond connecting atoms Cl5        and H3         Dist= 4.63D+00.
 Add virtual bond connecting atoms Cl5        and H4         Dist= 4.63D+00.
 NAtoms=      6 NQM=        6 NQMF=       0 NMMI=      0 NMMIF=      0
                NMic=       0 NMicF=      0.
                    Isotopes and Nuclear Properties:
 (Nuclear quadrupole moments (NQMom) in fm**2, nuclear magnetic moments (NMagM)
  in nuclear magnetons)

  Atom         1           2           3           4           5           6
 IAtWgt=          12           1           1           1          35          35
 AtmWgt=  12.0000000   1.0078250   1.0078250   1.0078250  34.9688527  34.9688527
 NucSpn=           0           1           1           1           3           3
 AtZEff=   0.0000000   0.0000000   0.0000000   0.0000000   0.0000000   0.0000000
 NQMom=    0.0000000   0.0000000   0.0000000   0.0000000  -8.1650000  -8.1650000
 NMagM=    0.0000000   2.7928460   2.7928460   2.7928460   0.8218740   0.8218740
 AtZNuc=   6.0000000   1.0000000   1.0000000   1.0000000  17.0000000  17.0000000
 Leave Link  101 at Fri Mar  3 14:33:30 2017, MaxMem=    33554432 cpu:         0.1
 (Enter /n/sw/g09_D.01/g09/l103.exe)

 GradGradGradGradGradGradGradGradGradGradGradGradGradGradGradGradGradGrad
 Berny optimization.
 Initialization pass.
                           ----------------------------
                           !    Initial Parameters    !
                           ! (Angstroms and Degrees)  !
 --------------------------                            --------------------------
 ! Name  Definition              Value          Derivative Info.                !
 --------------------------------------------------------------------------------
 ! R1    R(1,2)                  1.2579         estimate D2E/DX2                !
 ! R2    R(1,3)                  1.2579         estimate D2E/DX2                !
 ! R3    R(1,4)                  1.2579         estimate D2E/DX2                !
 ! R4    R(1,6)                  1.5041         estimate D2E/DX2                !
 ! R5    R(2,5)                  2.4479         estimate D2E/DX2                !
 ! R6    R(3,5)                  2.4479         estimate D2E/DX2                !
 ! R7    R(4,5)                  2.4479         estimate D2E/DX2                !
 ! A1    A(2,1,3)               98.1055         estimate D2E/DX2                !
 ! A2    A(2,1,4)               98.1059         estimate D2E/DX2                !
 ! A3    A(2,1,6)              119.2887         estimate D2E/DX2                !
 ! A4    A(3,1,4)               98.1054         estimate D2E/DX2                !
 ! A5    A(3,1,6)              119.2894         estimate D2E/DX2                !
 ! A6    A(4,1,6)              119.2896         estimate D2E/DX2                !
 ! A7    A(1,2,5)               92.6612         estimate D2E/DX2                !
 ! A8    A(1,3,5)               92.6614         estimate D2E/DX2                !
 ! A9    A(1,4,5)               92.6614         estimate D2E/DX2                !
 ! A10   A(2,5,3)               45.6785         estimate D2E/DX2                !
 ! A11   A(2,5,4)               45.6786         estimate D2E/DX2                !
 ! A12   A(3,5,4)               45.6786         estimate D2E/DX2                !
 ! D1    D(3,1,2,5)            -49.7238         estimate D2E/DX2                !
 ! D2    D(4,1,2,5)             49.7234         estimate D2E/DX2                !
 ! D3    D(6,1,2,5)           -180.0            estimate D2E/DX2                !
 ! D4    D(2,1,3,5)             49.724          estimate D2E/DX2                !
 ! D5    D(4,1,3,5)            -49.7236         estimate D2E/DX2                !
 ! D6    D(6,1,3,5)            179.9997         estimate D2E/DX2                !
 ! D7    D(2,1,4,5)            -49.7236         estimate D2E/DX2                !
 ! D8    D(3,1,4,5)             49.7237         estimate D2E/DX2                !
 ! D9    D(6,1,4,5)           -179.9997         estimate D2E/DX2                !
 ! D10   D(1,2,5,3)             32.8567         estimate D2E/DX2                !
 ! D11   D(1,2,5,4)            -32.8564         estimate D2E/DX2                !
 ! D12   D(1,3,5,2)            -32.8565         estimate D2E/DX2                !
 ! D13   D(1,3,5,4)             32.8565         estimate D2E/DX2                !
 ! D14   D(1,4,5,2)             32.8562         estimate D2E/DX2                !
 ! D15   D(1,4,5,3)            -32.8565         estimate D2E/DX2                !
 --------------------------------------------------------------------------------
 Trust Radius=3.00D-01 FncErr=1.00D-07 GrdErr=1.00D-07
 Number of steps in this run=     44 maximum allowed number of steps=    100.
 GradGradGradGradGradGradGradGradGradGradGradGradGradGradGradGradGradGrad

 Leave Link  103 at Fri Mar  3 14:33:30 2017, MaxMem=    33554432 cpu:         0.0
 (Enter /n/sw/g09_D.01/g09/l202.exe)
                          Input orientation:                          
 ---------------------------------------------------------------------
 Center     Atomic      Atomic             Coordinates (Angstroms)
 Number     Number       Type             X           Y           Z
 ---------------------------------------------------------------------
      1          6           0       -0.556976    0.000003    0.000003
      2          1           0        0.058425   -0.752288   -0.798592
      3          1           0        0.058436   -0.315461    1.050801
      4          1           0        0.058439    1.067753   -0.252197
      5         17           0        2.246691   -0.000001   -0.000001
      6         17           0       -2.061105   -0.000001   -0.000001
 ---------------------------------------------------------------------
                    Distance matrix (angstroms):
                    1          2          3          4          5
     1  C    0.000000
     2  H    1.257940   0.000000
     3  H    1.257945   1.900282   0.000000
     4  H    1.257947   1.900289   1.900285   0.000000
     5  Cl   2.803667   2.447895   2.447889   2.447886   0.000000
     6  Cl   1.504129   2.386648   2.386662   2.386665   4.307796
                    6
     6  Cl   0.000000
 This structure is nearly, but not quite of a higher symmetry.
 Consider Symm=Loose if the higher symmetry is desired.
 Stoichiometry    CH3Cl2(1-)
 Framework group  C1[X(CH3Cl2)]
 Deg. of freedom    12
 Full point group                 C1      NOp   1
 Largest Abelian subgroup         C1      NOp   1
 Largest concise Abelian subgroup C1      NOp   1
                         Standard orientation:                         
 ---------------------------------------------------------------------
 Center     Atomic      Atomic             Coordinates (Angstroms)
 Number     Number       Type             X           Y           Z
 ---------------------------------------------------------------------
      1          6           0       -0.000328   -0.013448   -0.556544
      2          1           0        0.780210   -0.769737    0.076860
      3          1           0       -1.058084   -0.288453    0.066313
      4          1           0        0.277964    1.062451    0.032885
      5         17           0        0.001314    0.054291    2.246304
      6         17           0       -0.001203   -0.049795   -2.060233
 ---------------------------------------------------------------------
 Rotational constants (GHZ):    138.8655089      1.5286018      1.5286017
 Leave Link  202 at Fri Mar  3 14:33:30 2017, MaxMem=    33554432 cpu:         0.0
 (Enter /n/sw/g09_D.01/g09/l301.exe)
 Standard basis: VSTO-6G (5D, 7F)
 Ernie: Thresh=  0.10000D-02 Tol=  0.10000D-05 Strict=F.
  NNHCO=     0 NNPyr=     0 NCTC=     0               EPep=         0.000000000
    EC=        31.741801636  ECS=         0.507261316   EG=         0.130095817
   EHC=         0.000000000  EAt=       -33.052414446  AtH=         0.613817032
 EPDDG=         0.000000000  ECC=        32.379158769 EAtT=        33.666231478
 There are    15 symmetry adapted cartesian basis functions of A   symmetry.
 There are    15 symmetry adapted basis functions of A   symmetry.
    15 basis functions,    90 primitive gaussians,    15 cartesian basis functions
    11 alpha electrons       11 beta electrons
       nuclear repulsion energy        66.0453902476 Hartrees.



 Warning!  Cl atom    6 may be hypervalent but has no d functions.



 IExCor=    0 DFT=F Ex=HF Corr=None ExCW=0 ScaHFX=  1.000000
 ScaDFX=  1.000000  1.000000  1.000000  1.000000 ScalE2=  1.000000  1.000000
 IRadAn=      0 IRanWt=     -1 IRanGd=            0 ICorTp=0 IEmpDi=  4
 Integral buffers will be    131072 words long.
 Regular integral format.
 Two-electron integral symmetry is turned off.
 Leave Link  301 at Fri Mar  3 14:33:30 2017, MaxMem=    33554432 cpu:         0.0
 (Enter /n/sw/g09_D.01/g09/l302.exe)
 Do NDO integrals.
 NPDir=0 NMtPBC=     1 NCelOv=     1 NCel=       1 NClECP=     1 NCelD=      1
         NCelK=      1 NCelE2=     1 NClLst=     1 CellRange=     0.0.
 One-electron integrals computed using PRISM.
 NBasis=    15 RedAO= F EigKep=  0.00D+00  NBF=    15
 NBsUse=    15 1.00D-04 EigRej=  0.00D+00 NBFU=    15
 Leave Link  302 at Fri Mar  3 14:33:30 2017, MaxMem=    33554432 cpu:         0.1
 (Enter /n/sw/g09_D.01/g09/l303.exe)
 DipDrv:  MaxL=1.
 Leave Link  303 at Fri Mar  3 14:33:30 2017, MaxMem=    33554432 cpu:         0.0
 (Enter /n/sw/g09_D.01/g09/l401.exe)
 Simple Huckel Guess.
 JPrj=0 DoOrth=F DoCkMO=F.
 Leave Link  401 at Fri Mar  3 14:33:30 2017, MaxMem=    33554432 cpu:         0.0
 (Enter /n/sw/g09_D.01/g09/l502.exe)
 Closed shell SCF:
 Using DIIS extrapolation, IDIIS=  1040.
 Overlap will be assumed to be unity.
 Two-electron integral symmetry not used.
 Keep J ints in memory in canonical form, NReq=884770.
 IVT=       79028 IEndB=       79028 NGot=    33554432 MDV=    33474844
 LenX=    33474844 LenY=    33473962
 Requested convergence on RMS density matrix=1.00D-08 within 128 cycles.
 Requested convergence on MAX density matrix=1.00D-06.
 Requested convergence on             energy=1.00D-06.
 No special actions if energy rises.
 FoFCou: FMM=F IPFlag=           0 FMFlag=           0 FMFlg1=           0
         NFxFlg=           0 DoJE=F BraDBF=F KetDBF=F FulRan=T
         wScrn=  0.000000 ICntrl=     600 IOpCl=  2 I1Cent=           0 NGrid=           0
         NMat0=    1 NMatS0=     33 NMatT0=    0 NMatD0=    1 NMtDS0=    0 NMtDT0=    0
 Symmetry not used in FoFCou.

 Cycle   1  Pass 1  IDiag  1:
 E= 0.254834345620424    
 DIIS: error= 1.11D-01 at cycle   1 NSaved=   1.
 NSaved= 1 IEnMin= 1 EnMin= 0.254834345620424     IErMin= 1 ErrMin= 1.11D-01
 ErrMax= 1.11D-01  0.00D+00 EMaxC= 1.00D-01 BMatC= 1.22D-01 BMatP= 1.22D-01
 IDIUse=3 WtCom= 0.00D+00 WtEn= 1.00D+00
 Coeff-Com:  0.100D+01
 Coeff-En:   0.100D+01
 Coeff:      0.100D+01
 GapD=    2.000 DampG=2.000 DampE=0.250 DampFc=0.5000 IDamp=-1.
 Damping current iteration by 5.00D-01
 RMSDP=2.98D-02 MaxDP=1.43D-01              OVMax= 0.00D+00

 Cycle   2  Pass 1  IDiag  1:
 E= 0.132854345766560     Delta-E=       -0.121979999854 Rises=F Damp=T
 DIIS: error= 6.71D-02 at cycle   2 NSaved=   2.
 NSaved= 2 IEnMin= 2 EnMin= 0.132854345766560     IErMin= 2 ErrMin= 6.71D-02
 ErrMax= 6.71D-02  0.00D+00 EMaxC= 1.00D-01 BMatC= 4.69D-02 BMatP= 1.22D-01
 IDIUse=3 WtCom= 3.29D-01 WtEn= 6.71D-01
 Coeff-Com: -0.162D+01 0.262D+01
 Coeff-En:   0.000D+00 0.100D+01
 Coeff:     -0.532D+00 0.153D+01
 RMSDP=1.99D-02 MaxDP=9.60D-02 DE=-1.22D-01 OVMax= 0.00D+00

 Cycle   3  Pass 1  IDiag  1:
 E=-0.284781622202388E-01 Delta-E=       -0.161332507987 Rises=F Damp=F
 DIIS: error= 9.11D-03 at cycle   3 NSaved=   3.
 NSaved= 3 IEnMin= 3 EnMin=-0.284781622202388E-01 IErMin= 3 ErrMin= 9.11D-03
 ErrMax= 9.11D-03  0.00D+00 EMaxC= 1.00D-01 BMatC= 1.04D-03 BMatP= 4.69D-02
 IDIUse=3 WtCom= 9.09D-01 WtEn= 9.11D-02
 Coeff-Com:  0.665D+00-0.131D+01 0.164D+01
 Coeff-En:   0.000D+00 0.000D+00 0.100D+01
 Coeff:      0.605D+00-0.119D+01 0.159D+01
 RMSDP=3.48D-03 MaxDP=1.85D-02 DE=-1.61D-01 OVMax= 0.00D+00

 Cycle   4  Pass 1  IDiag  3:
 E=-0.308393702178762E-01 Delta-E=       -0.002361207998 Rises=F Damp=F
 DIIS: error= 5.94D-04 at cycle   4 NSaved=   4.
 NSaved= 4 IEnMin= 4 EnMin=-0.308393702178762E-01 IErMin= 4 ErrMin= 5.94D-04
 ErrMax= 5.94D-04  0.00D+00 EMaxC= 1.00D-01 BMatC= 4.97D-06 BMatP= 1.04D-03
 IDIUse=3 WtCom= 9.94D-01 WtEn= 5.94D-03
 Coeff-Com: -0.177D+00 0.364D+00-0.583D+00 0.140D+01
 Coeff-En:   0.000D+00 0.000D+00 0.000D+00 0.100D+01
 Coeff:     -0.176D+00 0.362D+00-0.579D+00 0.139D+01
 Gap=     0.368 Goal=   None    Shift=    0.000
 RMSDP=4.93D-04 MaxDP=2.87D-03 DE=-2.36D-03 OVMax= 2.00D-03

 Cycle   5  Pass 1  IDiag  3:
 E=-0.308653544531978E-01 Delta-E=       -0.000025984235 Rises=F Damp=F
 DIIS: error= 1.04D-04 at cycle   5 NSaved=   5.
 NSaved= 5 IEnMin= 5 EnMin=-0.308653544531978E-01 IErMin= 5 ErrMin= 1.04D-04
 ErrMax= 1.04D-04  0.00D+00 EMaxC= 1.00D-01 BMatC= 1.51D-07 BMatP= 4.97D-06
 IDIUse=3 WtCom= 9.99D-01 WtEn= 1.04D-03
 Coeff-Com: -0.117D-01 0.224D-01-0.189D-01-0.161D+00 0.117D+01
 Coeff-En:   0.000D+00 0.000D+00 0.000D+00 0.000D+00 0.100D+01
 Coeff:     -0.117D-01 0.224D-01-0.188D-01-0.161D+00 0.117D+01
 Gap=     0.368 Goal=   None    Shift=    0.000
 RMSDP=1.04D-04 MaxDP=5.35D-04 DE=-2.60D-05 OVMax= 4.92D-04

 Cycle   6  Pass 1  IDiag  3:
 E=-0.308663484701981E-01 Delta-E=       -0.000000994017 Rises=F Damp=F
 DIIS: error= 2.24D-05 at cycle   6 NSaved=   6.
 NSaved= 6 IEnMin= 6 EnMin=-0.308663484701981E-01 IErMin= 6 ErrMin= 2.24D-05
 ErrMax= 2.24D-05  0.00D+00 EMaxC= 1.00D-01 BMatC= 1.15D-08 BMatP= 1.51D-07
 IDIUse=1 WtCom= 1.00D+00 WtEn= 0.00D+00
 Coeff-Com: -0.209D-02 0.442D-02-0.111D-01 0.144D+00-0.893D+00 0.176D+01
 Coeff:     -0.209D-02 0.442D-02-0.111D-01 0.144D+00-0.893D+00 0.176D+01
 Gap=     0.368 Goal=   None    Shift=    0.000
 RMSDP=3.37D-05 MaxDP=1.69D-04 DE=-9.94D-07 OVMax= 1.91D-04

 Cycle   7  Pass 1  IDiag  3:
 E=-0.308664259954980E-01 Delta-E=       -0.000000077525 Rises=F Damp=F
 DIIS: error= 1.95D-06 at cycle   7 NSaved=   7.
 NSaved= 7 IEnMin= 7 EnMin=-0.308664259954980E-01 IErMin= 7 ErrMin= 1.95D-06
 ErrMax= 1.95D-06  0.00D+00 EMaxC= 1.00D-01 BMatC= 9.26D-11 BMatP= 1.15D-08
 IDIUse=1 WtCom= 1.00D+00 WtEn= 0.00D+00
 Coeff-Com: -0.208D-03 0.339D-03 0.132D-02-0.511D-01 0.349D+00-0.741D+00
 Coeff-Com:  0.144D+01
 Coeff:     -0.208D-03 0.339D-03 0.132D-02-0.511D-01 0.349D+00-0.741D+00
 Coeff:      0.144D+01
 Gap=     0.368 Goal=   None    Shift=    0.000
 RMSDP=3.18D-06 MaxDP=1.35D-05 DE=-7.75D-08 OVMax= 2.17D-05

 Cycle   8  Pass 1  IDiag  3:
 E=-0.308664267188163E-01 Delta-E=       -0.000000000723 Rises=F Damp=F
 DIIS: error= 4.06D-07 at cycle   8 NSaved=   8.
 NSaved= 8 IEnMin= 8 EnMin=-0.308664267188163E-01 IErMin= 8 ErrMin= 4.06D-07
 ErrMax= 4.06D-07  0.00D+00 EMaxC= 1.00D-01 BMatC= 3.56D-12 BMatP= 9.26D-11
 IDIUse=1 WtCom= 1.00D+00 WtEn= 0.00D+00
 Coeff-Com:  0.658D-04-0.119D-03-0.308D-03 0.158D-01-0.110D+00 0.239D+00
 Coeff-Com: -0.628D+00 0.148D+01
 Coeff:      0.658D-04-0.119D-03-0.308D-03 0.158D-01-0.110D+00 0.239D+00
 Coeff:     -0.628D+00 0.148D+01
 Gap=     0.368 Goal=   None    Shift=    0.000
 RMSDP=6.89D-07 MaxDP=3.31D-06 DE=-7.23D-10 OVMax= 4.79D-06

 Cycle   9  Pass 1  IDiag  3:
 E=-0.308664267451775E-01 Delta-E=       -0.000000000026 Rises=F Damp=F
 DIIS: error= 4.22D-08 at cycle   9 NSaved=   9.
 NSaved= 9 IEnMin= 9 EnMin=-0.308664267451775E-01 IErMin= 9 ErrMin= 4.22D-08
 ErrMax= 4.22D-08  0.00D+00 EMaxC= 1.00D-01 BMatC= 3.62D-14 BMatP= 3.56D-12
 IDIUse=1 WtCom= 1.00D+00 WtEn= 0.00D+00
 Coeff-Com: -0.589D-05 0.969D-05 0.144D-03-0.588D-02 0.409D-01-0.890D-01
 Coeff-Com:  0.245D+00-0.611D+00 0.142D+01
 Coeff:     -0.589D-05 0.969D-05 0.144D-03-0.588D-02 0.409D-01-0.890D-01
 Coeff:      0.245D+00-0.611D+00 0.142D+01
 Gap=     0.368 Goal=   None    Shift=    0.000
 RMSDP=4.90D-08 MaxDP=3.12D-07 DE=-2.64D-11 OVMax= 3.36D-07

 Cycle  10  Pass 1  IDiag  3:
 E=-0.308664267453764E-01 Delta-E=        0.000000000000 Rises=F Damp=F
 DIIS: error= 4.70D-09 at cycle  10 NSaved=  10.
 NSaved=10 IEnMin=10 EnMin=-0.308664267453764E-01 IErMin=10 ErrMin= 4.70D-09
 ErrMax= 4.70D-09  0.00D+00 EMaxC= 1.00D-01 BMatC= 8.49D-16 BMatP= 3.62D-14
 IDIUse=1 WtCom= 1.00D+00 WtEn= 0.00D+00
 Coeff-Com: -0.508D-06 0.146D-05-0.421D-04 0.153D-02-0.106D-01 0.230D-01
 Coeff-Com: -0.639D-01 0.160D+00-0.464D+00 0.135D+01
 Coeff:     -0.508D-06 0.146D-05-0.421D-04 0.153D-02-0.106D-01 0.230D-01
 Coeff:     -0.639D-01 0.160D+00-0.464D+00 0.135D+01
 Gap=     0.368 Goal=   None    Shift=    0.000
 RMSDP=7.51D-09 MaxDP=2.74D-08 DE=-1.99D-13 OVMax= 4.31D-08

 Cycle  11  Pass 2  IDiag  1:
 SCF Done:  E(RAM1) = -0.308664267454E-01 A.U. after   11 cycles
            NFock= 10  Conv=0.75D-08     -V/T= 0.9976
 KE=-1.280289639419D+01 PE=-1.091475804476D+02 EE= 5.587422016737D+01
 Leave Link  502 at Fri Mar  3 14:33:30 2017, MaxMem=    33554432 cpu:         0.0
 (Enter /n/sw/g09_D.01/g09/l601.exe)
 Copying SCF densities to generalized density rwf, IOpCl= 0 IROHF=0.

 **********************************************************************

            Population analysis using the SCF density.

 **********************************************************************

 Orbital symmetries:
       Occupied  (A) (A) (A) (A) (A) (A) (A) (A) (A) (A) (A)
       Virtual   (A) (A) (A) (A)
 The electronic state is 1-A.
 Alpha  occ. eigenvalues --   -1.28561  -0.94056  -0.84289  -0.41781  -0.39930
 Alpha  occ. eigenvalues --   -0.39930  -0.22331  -0.22331  -0.12501  -0.12501
 Alpha  occ. eigenvalues --   -0.11891
 Alpha virt. eigenvalues --    0.24933   0.30136   0.30136   0.34211
          Condensed to atoms (all electrons):
               1          2          3          4          5          6
     1  C    4.369035   0.000000   0.000000   0.000000   0.000000   0.000000
     2  H    0.000000   0.867199   0.000000   0.000000   0.000000   0.000000
     3  H    0.000000   0.000000   0.867196   0.000000   0.000000   0.000000
     4  H    0.000000   0.000000   0.000000   0.867195   0.000000   0.000000
     5  Cl   0.000000   0.000000   0.000000   0.000000   7.967628   0.000000
     6  Cl   0.000000   0.000000   0.000000   0.000000   0.000000   7.061747
 Mulliken charges:
               1
     1  C   -0.369035
     2  H    0.132801
     3  H    0.132804
     4  H    0.132805
     5  Cl  -0.967628
     6  Cl  -0.061747
 Sum of Mulliken charges =  -1.00000
 Mulliken charges with hydrogens summed into heavy atoms:
               1
     1  C    0.029375
     5  Cl  -0.967628
     6  Cl  -0.061747
 Charge=             -1.0000 electrons
 Dipole moment (field-independent basis, Debye):
    X=             -0.0050    Y=             -0.2063    Z=             -8.5374  Tot=              8.5399
 N-N= 6.604539024764D+01 E-N=-1.091475804413D+02  KE=-1.280289639419D+01
 Leave Link  601 at Fri Mar  3 14:33:30 2017, MaxMem=    33554432 cpu:         0.0
 (Enter /n/sw/g09_D.01/g09/l701.exe)
 Compute integral first derivatives.
 ... and contract with generalized density number  0.
 Leave Link  701 at Fri Mar  3 14:33:30 2017, MaxMem=    33554432 cpu:         0.0
 (Enter /n/sw/g09_D.01/g09/l702.exe)
 L702 exits ... SP integral derivatives will be done elsewhere.
 Leave Link  702 at Fri Mar  3 14:33:30 2017, MaxMem=    33554432 cpu:         0.0
 (Enter /n/sw/g09_D.01/g09/l703.exe)
 Compute integral first derivatives, UseDBF=F ICtDFT=           0.
 Integral derivatives from FoFJK, PRISM(SPDF).
 Calling FoFJK, ICntrl=      2127 FMM=F ISym2X=0 I1Cent= 0 IOpClX= 0 NMat=1 NMatS=1 NMatT=0.
 FoFJK:  IHMeth= 8 ICntrl=    2127 DoSepK=F KAlg= 0 I1Cent=   0 FoldK=F
 IRaf=         0 NMat=   1 IRICut=       1 DoRegI=T DoRafI=F ISym2E= 0.
 FoFCou: FMM=F IPFlag=           0 FMFlag=      100000 FMFlg1=         800
         NFxFlg=           0 DoJE=F BraDBF=F KetDBF=F FulRan=T
         wScrn=  0.000000 ICntrl=    2127 IOpCl=  0 I1Cent=           0 NGrid=           0
         NMat0=    1 NMatS0=      1 NMatT0=    0 NMatD0=    1 NMtDS0=    0 NMtDT0=    0
 Symmetry not used in FoFCou.
 Leave Link  703 at Fri Mar  3 14:33:30 2017, MaxMem=    33554432 cpu:         0.0
 (Enter /n/sw/g09_D.01/g09/l716.exe)
 Dipole        =-1.96790286D-03-8.11787448D-02-3.35888679D+00
 ***** Axes restored to original set *****
 -------------------------------------------------------------------
 Center     Atomic                   Forces (Hartrees/Bohr)
 Number     Number              X              Y              Z
 -------------------------------------------------------------------
      1        6           0.276630185    0.000000216    0.000000769
      2        1          -0.035942098    0.034250765    0.036358426
      3        1          -0.035943798    0.014362880   -0.047841590
      4        1          -0.035944183   -0.048614078    0.011482359
      5       17           0.010998973    0.000000066    0.000000051
      6       17          -0.179799079    0.000000151   -0.000000015
 -------------------------------------------------------------------
 Cartesian Forces:  Max     0.276630185 RMS     0.081763227
 Leave Link  716 at Fri Mar  3 14:33:30 2017, MaxMem=    33554432 cpu:         0.0
 (Enter /n/sw/g09_D.01/g09/l103.exe)

 GradGradGradGradGradGradGradGradGradGradGradGradGradGradGradGradGradGrad
 Berny optimization.
 FormGI is forming the generalized inverse of G from B-inverse, IUseBI=4.
 Internal  Forces:  Max     0.179799079 RMS     0.035257823
 Search for a local minimum.
 Step number   1 out of a maximum of   44
 All quantities printed in internal units (Hartrees-Bohrs-Radians)
 RMS Force = .35258D-01 SwitMx=.10000D-02 MixMth= 1
 Mixed Optimization -- RFO/linear search
 Second derivative matrix not updated -- first step.
 ITU=  0
     Eigenvalues ---    0.03155   0.03155   0.03173   0.05887   0.05887
     Eigenvalues ---    0.08966   0.08966   0.14212   0.18926   0.18926
     Eigenvalues ---    0.20436   0.75325
 RFO step:  Lambda=-7.51775287D-02 EMin= 3.15482486D-02
 Linear search not attempted -- first point.
 Maximum step size (   0.300) exceeded in Quadratic search.
    -- Step size scaled by   0.714
 Iteration  1 RMS(Cart)=  0.03650709 RMS(Int)=  0.00089722
 Iteration  2 RMS(Cart)=  0.00057447 RMS(Int)=  0.00017691
 Iteration  3 RMS(Cart)=  0.00000031 RMS(Int)=  0.00017691
 ITry= 1 IFail=0 DXMaxC= 9.96D-02 DCOld= 1.00D+10 DXMaxT= 3.00D-01 DXLimC= 3.00D+00 Rises=F
 Variable       Old X    -DE/DX   Delta X   Delta X   Delta X     New X
                                 (Linear)    (Quad)   (Total)
    R1        2.37716  -0.05376   0.00000  -0.13878  -0.13867   2.23849
    R2        2.37717  -0.05376   0.00000  -0.13879  -0.13868   2.23849
    R3        2.37718  -0.05376   0.00000  -0.13879  -0.13868   2.23849
    R4        2.84239   0.17980   0.00000   0.15502   0.15502   2.99741
    R5        4.62585   0.00040   0.00000   0.00783   0.00777   4.63362
    R6        4.62584   0.00040   0.00000   0.00783   0.00777   4.63361
    R7        4.62584   0.00040   0.00000   0.00783   0.00777   4.63361
    A1        1.71226   0.00651   0.00000   0.02229   0.02210   1.73436
    A2        1.71227   0.00650   0.00000   0.02229   0.02209   1.73436
    A3        2.08198  -0.00503   0.00000  -0.01724  -0.01724   2.06474
    A4        1.71226   0.00651   0.00000   0.02229   0.02209   1.73436
    A5        2.08199  -0.00503   0.00000  -0.01724  -0.01725   2.06475
    A6        2.08200  -0.00503   0.00000  -0.01724  -0.01725   2.06475
    A7        1.61724   0.00494   0.00000   0.00803   0.00815   1.62539
    A8        1.61725   0.00494   0.00000   0.00803   0.00815   1.62539
    A9        1.61725   0.00494   0.00000   0.00803   0.00815   1.62540
   A10        0.79724  -0.01675   0.00000  -0.04246  -0.04274   0.75450
   A11        0.79724  -0.01675   0.00000  -0.04246  -0.04274   0.75450
   A12        0.79724  -0.01675   0.00000  -0.04246  -0.04274   0.75450
    D1       -0.86784  -0.00442   0.00000  -0.01516  -0.01543  -0.88328
    D2        0.86784   0.00442   0.00000   0.01516   0.01544   0.88327
    D3       -3.14159   0.00000   0.00000   0.00000   0.00000   3.14159
    D4        0.86785   0.00442   0.00000   0.01516   0.01543   0.88328
    D5       -0.86784  -0.00442   0.00000  -0.01516  -0.01543  -0.88327
    D6        3.14159   0.00000   0.00000   0.00000   0.00000   3.14159
    D7       -0.86784  -0.00442   0.00000  -0.01516  -0.01543  -0.88328
    D8        0.86784   0.00442   0.00000   0.01516   0.01543   0.88328
    D9       -3.14159   0.00000   0.00000   0.00000   0.00000  -3.14159
   D10        0.57346  -0.00228   0.00000  -0.00578  -0.00561   0.56785
   D11       -0.57345   0.00228   0.00000   0.00577   0.00561  -0.56785
   D12       -0.57345   0.00228   0.00000   0.00577   0.00561  -0.56785
   D13        0.57345  -0.00228   0.00000  -0.00577  -0.00561   0.56785
   D14        0.57345  -0.00228   0.00000  -0.00577  -0.00560   0.56784
   D15       -0.57345   0.00228   0.00000   0.00577   0.00561  -0.56785
         Item               Value     Threshold  Converged?
 Maximum Force            0.179799     0.000450     NO 
 RMS     Force            0.035258     0.000300     NO 
 Maximum Displacement     0.099617     0.001800     NO 
 RMS     Displacement     0.036830     0.001200     NO 
 Predicted change in Energy=-3.796571D-02
 Lowest energy point so far.  Saving SCF results.
 GradGradGradGradGradGradGradGradGradGradGradGradGradGradGradGradGradGrad

 Leave Link  103 at Fri Mar  3 14:33:30 2017, MaxMem=    33554432 cpu:         0.0
 (Enter /n/sw/g09_D.01/g09/l202.exe)
                          Input orientation:                          
 ---------------------------------------------------------------------
 Center     Atomic      Atomic             Coordinates (Angstroms)
 Number     Number       Type             X           Y           Z
 ---------------------------------------------------------------------
      1          6           0       -0.512581    0.000002    0.000003
      2          1           0        0.049019   -0.715149   -0.759168
      3          1           0        0.049027   -0.299887    0.998924
      4          1           0        0.049029    1.015038   -0.239746
      5         17           0        2.268157    0.000000    0.000000
      6         17           0       -2.098742    0.000001    0.000001
 ---------------------------------------------------------------------
                    Distance matrix (angstroms):
                    1          2          3          4          5
     1  C    0.000000
     2  H    1.184557   0.000000
     3  H    1.184560   1.806469   0.000000
     4  H    1.184560   1.806473   1.806470   0.000000
     5  Cl   2.780738   2.452009   2.452003   2.452001   0.000000
     6  Cl   1.586161   2.387604   2.387612   2.387614   4.366899
                    6
     6  Cl   0.000000
 Stoichiometry    CH3Cl2(1-)
 Framework group  C1[X(CH3Cl2)]
 Deg. of freedom    12
 Full point group                 C1      NOp   1
 RotChk:  IX=0 Diff= 2.01D+00
 Largest Abelian subgroup         C1      NOp   1
 Largest concise Abelian subgroup C1      NOp   1
                         Standard orientation:                         
 ---------------------------------------------------------------------
 Center     Atomic      Atomic             Coordinates (Angstroms)
 Number     Number       Type             X           Y           Z
 ---------------------------------------------------------------------
      1          6           0       -0.511456    0.000002    0.000001
      2          1           0        0.050144   -0.872964   -0.570710
      3          1           0        0.050151   -0.057770    1.041366
      4          1           0        0.050154    0.930736   -0.470649
      5         17           0        2.269281    0.000000    0.000000
      6         17           0       -2.097617    0.000000   -0.000001
 ---------------------------------------------------------------------
 Rotational constants (GHZ):    153.6633170      1.4919779      1.4919778
 Leave Link  202 at Fri Mar  3 14:33:30 2017, MaxMem=    33554432 cpu:         0.0
 (Enter /n/sw/g09_D.01/g09/l301.exe)
 Standard basis: VSTO-6G (5D, 7F)
 Ernie: Thresh=  0.10000D-02 Tol=  0.10000D-05 Strict=F.
  NNHCO=     0 NNPyr=     0 NCTC=     0               EPep=         0.000000000
    EC=        31.558453129  ECS=         0.513367975   EG=         0.127211032
   EHC=         0.000000000  EAt=       -33.052414446  AtH=         0.613817032
 EPDDG=         0.000000000  ECC=        32.199032136 EAtT=        33.666231478
 There are    15 symmetry adapted cartesian basis functions of A   symmetry.
 There are    15 symmetry adapted basis functions of A   symmetry.
    15 basis functions,    90 primitive gaussians,    15 cartesian basis functions
    11 alpha electrons       11 beta electrons
       nuclear repulsion energy        65.8652636141 Hartrees.



 Warning!  Cl atom    6 may be hypervalent but has no d functions.



 IExCor=    0 DFT=F Ex=HF Corr=None ExCW=0 ScaHFX=  1.000000
 ScaDFX=  1.000000  1.000000  1.000000  1.000000 ScalE2=  1.000000  1.000000
 IRadAn=      0 IRanWt=     -1 IRanGd=            0 ICorTp=0 IEmpDi=  4
 Integral buffers will be    131072 words long.
 Regular integral format.
 Two-electron integral symmetry is turned off.
 Leave Link  301 at Fri Mar  3 14:33:30 2017, MaxMem=    33554432 cpu:         0.0
 (Enter /n/sw/g09_D.01/g09/l302.exe)
 Do NDO integrals.
 NPDir=0 NMtPBC=     1 NCelOv=     1 NCel=       1 NClECP=     1 NCelD=      1
         NCelK=      1 NCelE2=     1 NClLst=     1 CellRange=     0.0.
 One-electron integrals computed using PRISM.
 NBasis=    15 RedAO= F EigKep=  0.00D+00  NBF=    15
 NBsUse=    15 1.00D-04 EigRej=  0.00D+00 NBFU=    15
 Leave Link  302 at Fri Mar  3 14:33:30 2017, MaxMem=    33554432 cpu:         0.1
 (Enter /n/sw/g09_D.01/g09/l303.exe)
 DipDrv:  MaxL=1.
 Leave Link  303 at Fri Mar  3 14:33:30 2017, MaxMem=    33554432 cpu:         0.0
 (Enter /n/sw/g09_D.01/g09/l401.exe)
 Initial guess from the checkpoint file:  "/scratch/Gau-27554.chk"
 B after Tr=     0.000000    0.000000    0.000000
         Rot=    0.704194    0.066353   -0.701975    0.083300 Ang=  90.47 deg.
 Guess basis will be translated and rotated to current coordinates.
 JPrj=0 DoOrth=T DoCkMO=T.
 Leave Link  401 at Fri Mar  3 14:33:30 2017, MaxMem=    33554432 cpu:         0.1
 (Enter /n/sw/g09_D.01/g09/l502.exe)
 Closed shell SCF:
 Using DIIS extrapolation, IDIIS=  1040.
 Overlap will be assumed to be unity.
 Two-electron integral symmetry not used.
 Keep J ints in memory in canonical form, NReq=884770.
 IVT=       79028 IEndB=       79028 NGot=    33554432 MDV=    33474844
 LenX=    33474844 LenY=    33473962
 Requested convergence on RMS density matrix=1.00D-08 within 128 cycles.
 Requested convergence on MAX density matrix=1.00D-06.
 Requested convergence on             energy=1.00D-06.
 No special actions if energy rises.
 FoFCou: FMM=F IPFlag=           0 FMFlag=           0 FMFlg1=           0
         NFxFlg=           0 DoJE=F BraDBF=F KetDBF=F FulRan=T
         wScrn=  0.000000 ICntrl=     600 IOpCl=  2 I1Cent=           0 NGrid=           0
         NMat0=    1 NMatS0=     33 NMatT0=    0 NMatD0=    1 NMtDS0=    0 NMtDT0=    0
 Symmetry not used in FoFCou.

 Cycle   1  Pass 1  IDiag  1:
 E=-0.694473858106761E-01
 DIIS: error= 7.22D-03 at cycle   1 NSaved=   1.
 NSaved= 1 IEnMin= 1 EnMin=-0.694473858106761E-01 IErMin= 1 ErrMin= 7.22D-03
 ErrMax= 7.22D-03  0.00D+00 EMaxC= 1.00D-01 BMatC= 1.17D-03 BMatP= 1.17D-03
 IDIUse=3 WtCom= 9.28D-01 WtEn= 7.22D-02
 Coeff-Com:  0.100D+01
 Coeff-En:   0.100D+01
 Coeff:      0.100D+01
 GapD=    2.000 DampG=2.000 DampE=1.000 DampFc=2.0000 IDamp=-1.
 RMSDP=3.44D-03 MaxDP=1.19D-02              OVMax= 0.00D+00

 Cycle   2  Pass 1  IDiag  3:
 E=-0.723299595396014E-01 Delta-E=       -0.002882573729 Rises=F Damp=F
 DIIS: error= 1.70D-03 at cycle   2 NSaved=   2.
 NSaved= 2 IEnMin= 2 EnMin=-0.723299595396014E-01 IErMin= 2 ErrMin= 1.70D-03
 ErrMax= 1.70D-03  0.00D+00 EMaxC= 1.00D-01 BMatC= 6.74D-05 BMatP= 1.17D-03
 IDIUse=3 WtCom= 9.83D-01 WtEn= 1.70D-02
 Coeff-Com: -0.298D+00 0.130D+01
 Coeff-En:   0.000D+00 0.100D+01
 Coeff:     -0.293D+00 0.129D+01
 Gap=     0.360 Goal=   None    Shift=    0.000
 RMSDP=1.24D-03 MaxDP=4.31D-03 DE=-2.88D-03 OVMax= 5.83D-03

 Cycle   3  Pass 1  IDiag  3:
 E=-0.725451996119943E-01 Delta-E=       -0.000215240072 Rises=F Damp=F
 DIIS: error= 1.52D-04 at cycle   3 NSaved=   3.
 NSaved= 3 IEnMin= 3 EnMin=-0.725451996119943E-01 IErMin= 3 ErrMin= 1.52D-04
 ErrMax= 1.52D-04  0.00D+00 EMaxC= 1.00D-01 BMatC= 7.41D-07 BMatP= 6.74D-05
 IDIUse=3 WtCom= 9.98D-01 WtEn= 1.52D-03
 Coeff-Com:  0.141D+00-0.651D+00 0.151D+01
 Coeff-En:   0.000D+00 0.000D+00 0.100D+01
 Coeff:      0.141D+00-0.650D+00 0.151D+01
 Gap=     0.360 Goal=   None    Shift=    0.000
 RMSDP=2.16D-04 MaxDP=1.14D-03 DE=-2.15D-04 OVMax= 1.11D-03

 Cycle   4  Pass 1  IDiag  3:
 E=-0.725491296369398E-01 Delta-E=       -0.000003930025 Rises=F Damp=F
 DIIS: error= 1.72D-05 at cycle   4 NSaved=   4.
 NSaved= 4 IEnMin= 4 EnMin=-0.725491296369398E-01 IErMin= 4 ErrMin= 1.72D-05
 ErrMax= 1.72D-05  0.00D+00 EMaxC= 1.00D-01 BMatC= 7.31D-09 BMatP= 7.41D-07
 IDIUse=1 WtCom= 1.00D+00 WtEn= 0.00D+00
 Coeff-Com: -0.534D-01 0.248D+00-0.593D+00 0.140D+01
 Coeff:     -0.534D-01 0.248D+00-0.593D+00 0.140D+01
 Gap=     0.360 Goal=   None    Shift=    0.000
 RMSDP=2.49D-05 MaxDP=1.35D-04 DE=-3.93D-06 OVMax= 1.74D-04

 Cycle   5  Pass 1  IDiag  3:
 E=-0.725491828862204E-01 Delta-E=       -0.000000053249 Rises=F Damp=F
 DIIS: error= 3.62D-06 at cycle   5 NSaved=   5.
 NSaved= 5 IEnMin= 5 EnMin=-0.725491828862204E-01 IErMin= 5 ErrMin= 3.62D-06
 ErrMax= 3.62D-06  0.00D+00 EMaxC= 1.00D-01 BMatC= 4.63D-10 BMatP= 7.31D-09
 IDIUse=1 WtCom= 1.00D+00 WtEn= 0.00D+00
 Coeff-Com:  0.135D-01-0.638D-01 0.149D+00-0.517D+00 0.142D+01
 Coeff:      0.135D-01-0.638D-01 0.149D+00-0.517D+00 0.142D+01
 Gap=     0.360 Goal=   None    Shift=    0.000
 RMSDP=7.36D-06 MaxDP=3.69D-05 DE=-5.32D-08 OVMax= 5.26D-05

 Cycle   6  Pass 1  IDiag  3:
 E=-0.725491863323100E-01 Delta-E=       -0.000000003446 Rises=F Damp=F
 DIIS: error= 6.56D-07 at cycle   6 NSaved=   6.
 NSaved= 6 IEnMin= 6 EnMin=-0.725491863323100E-01 IErMin= 6 ErrMin= 6.56D-07
 ErrMax= 6.56D-07  0.00D+00 EMaxC= 1.00D-01 BMatC= 1.53D-11 BMatP= 4.63D-10
 IDIUse=1 WtCom= 1.00D+00 WtEn= 0.00D+00
 Coeff-Com: -0.205D-02 0.101D-01-0.218D-01 0.102D+00-0.446D+00 0.136D+01
 Coeff:     -0.205D-02 0.101D-01-0.218D-01 0.102D+00-0.446D+00 0.136D+01
 Gap=     0.360 Goal=   None    Shift=    0.000
 RMSDP=1.05D-06 MaxDP=4.55D-06 DE=-3.45D-09 OVMax= 6.34D-06

 Cycle   7  Pass 1  IDiag  3:
 E=-0.725491864213836E-01 Delta-E=       -0.000000000089 Rises=F Damp=F
 DIIS: error= 1.04D-07 at cycle   7 NSaved=   7.
 NSaved= 7 IEnMin= 7 EnMin=-0.725491864213836E-01 IErMin= 7 ErrMin= 1.04D-07
 ErrMax= 1.04D-07  0.00D+00 EMaxC= 1.00D-01 BMatC= 4.96D-13 BMatP= 1.53D-11
 IDIUse=1 WtCom= 1.00D+00 WtEn= 0.00D+00
 Coeff-Com:  0.265D-03-0.142D-02 0.254D-02-0.181D-01 0.120D+00-0.509D+00
 Coeff-Com:  0.141D+01
 Coeff:      0.265D-03-0.142D-02 0.254D-02-0.181D-01 0.120D+00-0.509D+00
 Coeff:      0.141D+01
 Gap=     0.360 Goal=   None    Shift=    0.000
 RMSDP=1.72D-07 MaxDP=6.40D-07 DE=-8.91D-11 OVMax= 9.63D-07

 Cycle   8  Pass 1  IDiag  3:
 E=-0.725491864239700E-01 Delta-E=       -0.000000000003 Rises=F Damp=F
 DIIS: error= 1.43D-08 at cycle   8 NSaved=   8.
 NSaved= 8 IEnMin= 8 EnMin=-0.725491864239700E-01 IErMin= 8 ErrMin= 1.43D-08
 ErrMax= 1.43D-08  0.00D+00 EMaxC= 1.00D-01 BMatC= 1.01D-14 BMatP= 4.96D-13
 IDIUse=1 WtCom= 1.00D+00 WtEn= 0.00D+00
 Coeff-Com: -0.511D-04 0.313D-03-0.396D-03 0.507D-02-0.429D-01 0.197D+00
 Coeff-Com: -0.622D+00 0.146D+01
 Coeff:     -0.511D-04 0.313D-03-0.396D-03 0.507D-02-0.429D-01 0.197D+00
 Coeff:     -0.622D+00 0.146D+01
 Gap=     0.360 Goal=   None    Shift=    0.000
 RMSDP=2.93D-08 MaxDP=1.01D-07 DE=-2.59D-12 OVMax= 1.87D-07

 Cycle   9  Pass 1  IDiag  3:
 E=-0.725491864241121E-01 Delta-E=        0.000000000000 Rises=F Damp=F
 DIIS: error= 2.37D-09 at cycle   9 NSaved=   9.
 NSaved= 9 IEnMin= 9 EnMin=-0.725491864241121E-01 IErMin= 9 ErrMin= 2.37D-09
 ErrMax= 2.37D-09  0.00D+00 EMaxC= 1.00D-01 BMatC= 2.75D-16 BMatP= 1.01D-14
 IDIUse=1 WtCom= 1.00D+00 WtEn= 0.00D+00
 Coeff-Com:  0.464D-05-0.526D-04-0.217D-04-0.150D-02 0.164D-01-0.798D-01
 Coeff-Com:  0.266D+00-0.724D+00 0.152D+01
 Coeff:      0.464D-05-0.526D-04-0.217D-04-0.150D-02 0.164D-01-0.798D-01
 Coeff:      0.266D+00-0.724D+00 0.152D+01
 Gap=     0.360 Goal=   None    Shift=    0.000
 RMSDP=4.67D-09 MaxDP=1.40D-08 DE=-1.42D-13 OVMax= 0.00D+00

 SCF Done:  E(RAM1) = -0.725491864241E-01 A.U. after    9 cycles
            NFock=  9  Conv=0.47D-08     -V/T= 0.9943
 KE=-1.283178820207D+01 PE=-1.087710035706D+02 EE= 5.566497897210D+01
 Leave Link  502 at Fri Mar  3 14:33:30 2017, MaxMem=    33554432 cpu:         0.0
 (Enter /n/sw/g09_D.01/g09/l701.exe)
 Compute integral first derivatives.
 ... and contract with generalized density number  0.
 Leave Link  701 at Fri Mar  3 14:33:30 2017, MaxMem=    33554432 cpu:         0.1
 (Enter /n/sw/g09_D.01/g09/l702.exe)
 L702 exits ... SP integral derivatives will be done elsewhere.
 Leave Link  702 at Fri Mar  3 14:33:30 2017, MaxMem=    33554432 cpu:         0.0
 (Enter /n/sw/g09_D.01/g09/l703.exe)
 Compute integral first derivatives, UseDBF=F ICtDFT=           0.
 Integral derivatives from FoFJK, PRISM(SPDF).
 Calling FoFJK, ICntrl=      2127 FMM=F ISym2X=0 I1Cent= 0 IOpClX= 0 NMat=1 NMatS=1 NMatT=0.
 FoFJK:  IHMeth= 8 ICntrl=    2127 DoSepK=F KAlg= 0 I1Cent=   0 FoldK=F
 IRaf=         0 NMat=   1 IRICut=       1 DoRegI=T DoRafI=F ISym2E= 0.
 FoFCou: FMM=F IPFlag=           0 FMFlag=      100000 FMFlg1=         800
         NFxFlg=           0 DoJE=F BraDBF=F KetDBF=F FulRan=T
         wScrn=  0.000000 ICntrl=    2127 IOpCl=  0 I1Cent=           0 NGrid=           0
         NMat0=    1 NMatS0=      1 NMatT0=    0 NMatD0=    1 NMtDS0=    0 NMtDT0=    0
 Symmetry not used in FoFCou.
 Leave Link  703 at Fri Mar  3 14:33:30 2017, MaxMem=    33554432 cpu:         0.0
 (Enter /n/sw/g09_D.01/g09/l716.exe)
 Dipole        =-3.28885517D+00 2.45300390D-06 2.93521727D-06
 ***** Axes restored to original set *****
 -------------------------------------------------------------------
 Center     Atomic                   Forces (Hartrees/Bohr)
 Number     Number              X              Y              Z
 -------------------------------------------------------------------
      1        6           0.165062702    0.000000053    0.000000448
      2        1          -0.026136257    0.015603479    0.016563490
      3        1          -0.026137342    0.006543209   -0.021794985
      4        1          -0.026137532   -0.022147066    0.005230863
      5       17           0.011200157    0.000000032    0.000000026
      6       17          -0.097851729    0.000000293    0.000000157
 -------------------------------------------------------------------
 Cartesian Forces:  Max     0.165062702 RMS     0.047462876
 Leave Link  716 at Fri Mar  3 14:33:31 2017, MaxMem=    33554432 cpu:         0.0
 (Enter /n/sw/g09_D.01/g09/l103.exe)

 GradGradGradGradGradGradGradGradGradGradGradGradGradGradGradGradGradGrad
 Berny optimization.
 Using GEDIIS/GDIIS optimizer.
 FormGI is forming the generalized inverse of G from B-inverse, IUseBI=4.
 Internal  Forces:  Max     0.097851729 RMS     0.019323689
 Search for a local minimum.
 Step number   2 out of a maximum of   44
 All quantities printed in internal units (Hartrees-Bohrs-Radians)
 RMS Force = .19324D-01 SwitMx=.10000D-02 MixMth= 1
 Mixed Optimization -- RFO/linear search
 Update second derivatives using D2CorX and points    1    2
 DE= -4.17D-02 DEPred=-3.80D-02 R= 1.10D+00
 TightC=F SS=  1.41D+00  RLast= 3.03D-01 DXNew= 5.0454D-01 9.0777D-01
 Trust test= 1.10D+00 RLast= 3.03D-01 DXMaxT set to 5.05D-01
 ITU=  1  0
 Use linear search instead of GDIIS.
     Eigenvalues ---    0.03105   0.03207   0.03207   0.06020   0.06020
     Eigenvalues ---    0.09227   0.09227   0.12825   0.18744   0.18744
     Eigenvalues ---    0.21234   0.60376
 RFO step:  Lambda=-5.82136410D-03 EMin= 3.10485470D-02
 Quartic linear search produced a step of  1.20090.
 Iteration  1 RMS(Cart)=  0.04763305 RMS(Int)=  0.00475240
 Iteration  2 RMS(Cart)=  0.00356874 RMS(Int)=  0.00201360
 Iteration  3 RMS(Cart)=  0.00001234 RMS(Int)=  0.00201351
 Iteration  4 RMS(Cart)=  0.00000004 RMS(Int)=  0.00201351
 ITry= 1 IFail=0 DXMaxC= 1.50D-01 DCOld= 1.00D+10 DXMaxT= 5.05D-01 DXLimC= 3.00D+00 Rises=F
 Variable       Old X    -DE/DX   Delta X   Delta X   Delta X     New X
                                 (Linear)    (Quad)   (Total)
    R1        2.23849  -0.02908  -0.16653  -0.00453  -0.17037   2.06811
    R2        2.23849  -0.02908  -0.16654  -0.00453  -0.17038   2.06811
    R3        2.23849  -0.02908  -0.16654  -0.00453  -0.17038   2.06811
    R4        2.99741   0.09785   0.18616   0.01187   0.19803   3.19544
    R5        4.63362   0.00262   0.00933   0.15340   0.16244   4.79606
    R6        4.63361   0.00262   0.00934   0.15340   0.16244   4.79605
    R7        4.63361   0.00262   0.00934   0.15340   0.16244   4.79605
    A1        1.73436   0.00650   0.02653   0.05445   0.07696   1.81132
    A2        1.73436   0.00650   0.02653   0.05445   0.07696   1.81132
    A3        2.06474  -0.00512  -0.02071  -0.04290  -0.06296   2.00178
    A4        1.73436   0.00650   0.02653   0.05445   0.07696   1.81132
    A5        2.06475  -0.00512  -0.02071  -0.04290  -0.06297   2.00178
    A6        2.06475  -0.00512  -0.02071  -0.04290  -0.06297   2.00178
    A7        1.62539  -0.00004   0.00978  -0.03725  -0.02618   1.59921
    A8        1.62539  -0.00004   0.00978  -0.03725  -0.02618   1.59921
    A9        1.62540  -0.00004   0.00978  -0.03725  -0.02618   1.59922
   A10        0.75450  -0.00856  -0.05132  -0.00953  -0.06217   0.69233
   A11        0.75450  -0.00856  -0.05133  -0.00953  -0.06218   0.69233
   A12        0.75450  -0.00856  -0.05133  -0.00953  -0.06218   0.69233
    D1       -0.88328  -0.00466  -0.01853  -0.03907  -0.06114  -0.94442
    D2        0.88327   0.00466   0.01854   0.03907   0.06114   0.94441
    D3        3.14159   0.00000   0.00000   0.00000   0.00000   3.14159
    D4        0.88328   0.00466   0.01853   0.03907   0.06114   0.94442
    D5       -0.88327  -0.00466  -0.01853  -0.03907  -0.06114  -0.94441
    D6        3.14159   0.00000   0.00000   0.00000   0.00001  -3.14159
    D7       -0.88328  -0.00466  -0.01854  -0.03907  -0.06114  -0.94442
    D8        0.88328   0.00466   0.01854   0.03907   0.06114   0.94441
    D9       -3.14159   0.00000   0.00000   0.00000   0.00000   3.14159
   D10        0.56785  -0.00108  -0.00673  -0.00121  -0.00744   0.56041
   D11       -0.56785   0.00108   0.00673   0.00120   0.00744  -0.56040
   D12       -0.56785   0.00108   0.00673   0.00120   0.00744  -0.56041
   D13        0.56785  -0.00108  -0.00673  -0.00121  -0.00744   0.56040
   D14        0.56784  -0.00108  -0.00673  -0.00120  -0.00744   0.56041
   D15       -0.56785   0.00108   0.00673   0.00121   0.00744  -0.56040
         Item               Value     Threshold  Converged?
 Maximum Force            0.097852     0.000450     NO 
 RMS     Force            0.019324     0.000300     NO 
 Maximum Displacement     0.149823     0.001800     NO 
 RMS     Displacement     0.049553     0.001200     NO 
 Predicted change in Energy=-2.159771D-02
 Lowest energy point so far.  Saving SCF results.
 GradGradGradGradGradGradGradGradGradGradGradGradGradGradGradGradGradGrad

 Leave Link  103 at Fri Mar  3 14:33:31 2017, MaxMem=    33554432 cpu:         0.0
 (Enter /n/sw/g09_D.01/g09/l202.exe)
                          Input orientation:                          
 ---------------------------------------------------------------------
 Center     Atomic      Atomic             Coordinates (Angstroms)
 Number     Number       Type             X           Y           Z
 ---------------------------------------------------------------------
      1          6           0       -0.444835    0.000001    0.000002
      2          1           0        0.012362   -0.681794   -0.723763
      3          1           0        0.012365   -0.285901    0.952334
      4          1           0        0.012367    0.967693   -0.228566
      5         17           0        2.347440    0.000001    0.000002
      6         17           0       -2.135789    0.000005    0.000004
 ---------------------------------------------------------------------
                    Distance matrix (angstroms):
                    1          2          3          4          5
     1  C    0.000000
     2  H    1.094399   0.000000
     3  H    1.094398   1.722217   0.000000
     4  H    1.094397   1.722216   1.722214   0.000000
     5  Cl   2.792275   2.537966   2.537962   2.537959   0.000000
     6  Cl   1.690954   2.367116   2.367116   2.367116   4.483229
                    6
     6  Cl   0.000000
 Stoichiometry    CH3Cl2(1-)
 Framework group  C1[X(CH3Cl2)]
 Deg. of freedom    12
 Full point group                 C1      NOp   1
 RotChk:  IX=1 Diff= 9.66D-01
 Largest Abelian subgroup         C1      NOp   1
 Largest concise Abelian subgroup C1      NOp   1
                         Standard orientation:                         
 ---------------------------------------------------------------------
 Center     Atomic      Atomic             Coordinates (Angstroms)
 Number     Number       Type             X           Y           Z
 ---------------------------------------------------------------------
      1          6           0       -0.467304   -0.000002    0.000001
      2          1           0       -0.010106   -0.987377    0.117345
      3          1           0       -0.010104    0.595307    0.796420
      4          1           0       -0.010103    0.392062   -0.913759
      5         17           0        2.324971    0.000000    0.000000
      6         17           0       -2.158257    0.000001    0.000000
 ---------------------------------------------------------------------
 Rotational constants (GHZ):    169.0662820      1.4194989      1.4194989
 Leave Link  202 at Fri Mar  3 14:33:31 2017, MaxMem=    33554432 cpu:         0.0
 (Enter /n/sw/g09_D.01/g09/l301.exe)
 Standard basis: VSTO-6G (5D, 7F)
 Ernie: Thresh=  0.10000D-02 Tol=  0.10000D-05 Strict=F.
  NNHCO=     0 NNPyr=     0 NCTC=     0               EPep=         0.000000000
    EC=        31.146540391  ECS=         0.558038946   EG=         0.118728161
   EHC=         0.000000000  EAt=       -33.052414446  AtH=         0.613817032
 EPDDG=         0.000000000  ECC=        31.823307498 EAtT=        33.666231478
 There are    15 symmetry adapted cartesian basis functions of A   symmetry.
 There are    15 symmetry adapted basis functions of A   symmetry.
    15 basis functions,    90 primitive gaussians,    15 cartesian basis functions
    11 alpha electrons       11 beta electrons
       nuclear repulsion energy        65.4895389760 Hartrees.
 IExCor=    0 DFT=F Ex=HF Corr=None ExCW=0 ScaHFX=  1.000000
 ScaDFX=  1.000000  1.000000  1.000000  1.000000 ScalE2=  1.000000  1.000000
 IRadAn=      0 IRanWt=     -1 IRanGd=            0 ICorTp=0 IEmpDi=  4
 Integral buffers will be    131072 words long.
 Regular integral format.
 Two-electron integral symmetry is turned off.
 Leave Link  301 at Fri Mar  3 14:33:31 2017, MaxMem=    33554432 cpu:         0.1
 (Enter /n/sw/g09_D.01/g09/l302.exe)
 Do NDO integrals.
 NPDir=0 NMtPBC=     1 NCelOv=     1 NCel=       1 NClECP=     1 NCelD=      1
         NCelK=      1 NCelE2=     1 NClLst=     1 CellRange=     0.0.
 One-electron integrals computed using PRISM.
 NBasis=    15 RedAO= F EigKep=  0.00D+00  NBF=    15
 NBsUse=    15 1.00D-04 EigRej=  0.00D+00 NBFU=    15
 Leave Link  302 at Fri Mar  3 14:33:31 2017, MaxMem=    33554432 cpu:         0.1
 (Enter /n/sw/g09_D.01/g09/l303.exe)
 DipDrv:  MaxL=1.
 Leave Link  303 at Fri Mar  3 14:33:31 2017, MaxMem=    33554432 cpu:         0.0
 (Enter /n/sw/g09_D.01/g09/l401.exe)
 Initial guess from the checkpoint file:  "/scratch/Gau-27554.chk"
 B after Tr=     0.000000    0.000000    0.000000
         Rot=    0.939834    0.341633    0.000000    0.000000 Ang=  39.95 deg.
 Guess basis will be translated and rotated to current coordinates.
 JPrj=0 DoOrth=T DoCkMO=T.
 Leave Link  401 at Fri Mar  3 14:33:31 2017, MaxMem=    33554432 cpu:         0.1
 (Enter /n/sw/g09_D.01/g09/l502.exe)
 Closed shell SCF:
 Using DIIS extrapolation, IDIIS=  1040.
 Overlap will be assumed to be unity.
 Two-electron integral symmetry not used.
 Keep J ints in memory in canonical form, NReq=884770.
 IVT=       79028 IEndB=       79028 NGot=    33554432 MDV=    33474844
 LenX=    33474844 LenY=    33473962
 Requested convergence on RMS density matrix=1.00D-08 within 128 cycles.
 Requested convergence on MAX density matrix=1.00D-06.
 Requested convergence on             energy=1.00D-06.
 No special actions if energy rises.
 FoFCou: FMM=F IPFlag=           0 FMFlag=           0 FMFlg1=           0
         NFxFlg=           0 DoJE=F BraDBF=F KetDBF=F FulRan=T
         wScrn=  0.000000 ICntrl=     600 IOpCl=  2 I1Cent=           0 NGrid=           0
         NMat0=    1 NMatS0=     33 NMatT0=    0 NMatD0=    1 NMtDS0=    0 NMtDT0=    0
 Symmetry not used in FoFCou.

 Cycle   1  Pass 1  IDiag  1:
 E=-0.890554567945969E-01
 DIIS: error= 1.07D-02 at cycle   1 NSaved=   1.
 NSaved= 1 IEnMin= 1 EnMin=-0.890554567945969E-01 IErMin= 1 ErrMin= 1.07D-02
 ErrMax= 1.07D-02  0.00D+00 EMaxC= 1.00D-01 BMatC= 2.07D-03 BMatP= 2.07D-03
 IDIUse=3 WtCom= 8.93D-01 WtEn= 1.07D-01
 Coeff-Com:  0.100D+01
 Coeff-En:   0.100D+01
 Coeff:      0.100D+01
 GapD=    2.000 DampG=2.000 DampE=0.500 DampFc=1.0000 IDamp=-1.
 RMSDP=4.69D-03 MaxDP=1.77D-02              OVMax= 0.00D+00

 Cycle   2  Pass 1  IDiag  3:
 E=-0.943964444920624E-01 Delta-E=       -0.005340987697 Rises=F Damp=F
 DIIS: error= 2.76D-03 at cycle   2 NSaved=   2.
 NSaved= 2 IEnMin= 2 EnMin=-0.943964444920624E-01 IErMin= 2 ErrMin= 2.76D-03
 ErrMax= 2.76D-03  0.00D+00 EMaxC= 1.00D-01 BMatC= 1.37D-04 BMatP= 2.07D-03
 IDIUse=3 WtCom= 9.72D-01 WtEn= 2.76D-02
 Coeff-Com: -0.321D+00 0.132D+01
 Coeff-En:   0.000D+00 0.100D+01
 Coeff:     -0.313D+00 0.131D+01
 Gap=     0.344 Goal=   None    Shift=    0.000
 RMSDP=1.87D-03 MaxDP=7.23D-03 DE=-5.34D-03 OVMax= 9.54D-03

 Cycle   3  Pass 1  IDiag  3:
 E=-0.948723271244631E-01 Delta-E=       -0.000475882632 Rises=F Damp=F
 DIIS: error= 2.47D-04 at cycle   3 NSaved=   3.
 NSaved= 3 IEnMin= 3 EnMin=-0.948723271244631E-01 IErMin= 3 ErrMin= 2.47D-04
 ErrMax= 2.47D-04  0.00D+00 EMaxC= 1.00D-01 BMatC= 2.20D-06 BMatP= 1.37D-04
 IDIUse=3 WtCom= 9.98D-01 WtEn= 2.47D-03
 Coeff-Com:  0.158D+00-0.703D+00 0.155D+01
 Coeff-En:   0.000D+00 0.000D+00 0.100D+01
 Coeff:      0.157D+00-0.702D+00 0.154D+01
 Gap=     0.343 Goal=   None    Shift=    0.000
 RMSDP=4.08D-04 MaxDP=2.28D-03 DE=-4.76D-04 OVMax= 2.10D-03

 Cycle   4  Pass 1  IDiag  3:
 E=-0.948854647801483E-01 Delta-E=       -0.000013137656 Rises=F Damp=F
 DIIS: error= 4.19D-05 at cycle   4 NSaved=   4.
 NSaved= 4 IEnMin= 4 EnMin=-0.948854647801483E-01 IErMin= 4 ErrMin= 4.19D-05
 ErrMax= 4.19D-05  0.00D+00 EMaxC= 1.00D-01 BMatC= 3.96D-08 BMatP= 2.20D-06
 IDIUse=1 WtCom= 1.00D+00 WtEn= 0.00D+00
 Coeff-Com: -0.854D-01 0.385D+00-0.873D+00 0.157D+01
 Coeff:     -0.854D-01 0.385D+00-0.873D+00 0.157D+01
 Gap=     0.343 Goal=   None    Shift=    0.000
 RMSDP=6.45D-05 MaxDP=3.70D-04 DE=-1.31D-05 OVMax= 4.89D-04

 Cycle   5  Pass 1  IDiag  3:
 E=-0.948857623427699E-01 Delta-E=       -0.000000297563 Rises=F Damp=F
 DIIS: error= 7.53D-06 at cycle   5 NSaved=   5.
 NSaved= 5 IEnMin= 5 EnMin=-0.948857623427699E-01 IErMin= 5 ErrMin= 7.53D-06
 ErrMax= 7.53D-06  0.00D+00 EMaxC= 1.00D-01 BMatC= 1.43D-09 BMatP= 3.96D-08
 IDIUse=1 WtCom= 1.00D+00 WtEn= 0.00D+00
 Coeff-Com:  0.131D-01-0.610D-01 0.136D+00-0.372D+00 0.128D+01
 Coeff:      0.131D-01-0.610D-01 0.136D+00-0.372D+00 0.128D+01
 Gap=     0.343 Goal=   None    Shift=    0.000
 RMSDP=1.16D-05 MaxDP=6.13D-05 DE=-2.98D-07 OVMax= 8.12D-05

 Cycle   6  Pass 1  IDiag  3:
 E=-0.948857709230708E-01 Delta-E=       -0.000000008580 Rises=F Damp=F
 DIIS: error= 9.43D-07 at cycle   6 NSaved=   6.
 NSaved= 6 IEnMin= 6 EnMin=-0.948857709230708E-01 IErMin= 6 ErrMin= 9.43D-07
 ErrMax= 9.43D-07  0.00D+00 EMaxC= 1.00D-01 BMatC= 3.37D-11 BMatP= 1.43D-09
 IDIUse=1 WtCom= 1.00D+00 WtEn= 0.00D+00
 Coeff-Com: -0.115D-02 0.589D-02-0.118D-01 0.515D-01-0.326D+00 0.128D+01
 Coeff:     -0.115D-02 0.589D-02-0.118D-01 0.515D-01-0.326D+00 0.128D+01
 Gap=     0.343 Goal=   None    Shift=    0.000
 RMSDP=1.32D-06 MaxDP=5.72D-06 DE=-8.58D-09 OVMax= 6.18D-06

 Cycle   7  Pass 1  IDiag  3:
 E=-0.948857710986175E-01 Delta-E=       -0.000000000176 Rises=F Damp=F
 DIIS: error= 2.09D-07 at cycle   7 NSaved=   7.
 NSaved= 7 IEnMin= 7 EnMin=-0.948857710986175E-01 IErMin= 7 ErrMin= 2.09D-07
 ErrMax= 2.09D-07  0.00D+00 EMaxC= 1.00D-01 BMatC= 1.10D-12 BMatP= 3.37D-11
 IDIUse=1 WtCom= 1.00D+00 WtEn= 0.00D+00
 Coeff-Com:  0.175D-03-0.104D-02 0.179D-02-0.110D-01 0.960D-01-0.516D+00
 Coeff-Com:  0.143D+01
 Coeff:      0.175D-03-0.104D-02 0.179D-02-0.110D-01 0.960D-01-0.516D+00
 Coeff:      0.143D+01
 Gap=     0.343 Goal=   None    Shift=    0.000
 RMSDP=2.81D-07 MaxDP=1.54D-06 DE=-1.76D-10 OVMax= 1.56D-06

 Cycle   8  Pass 1  IDiag  3:
 E=-0.948857711047992E-01 Delta-E=       -0.000000000006 Rises=F Damp=F
 DIIS: error= 1.69D-08 at cycle   8 NSaved=   8.
 NSaved= 8 IEnMin= 8 EnMin=-0.948857711047992E-01 IErMin= 8 ErrMin= 1.69D-08
 ErrMax= 1.69D-08  0.00D+00 EMaxC= 1.00D-01 BMatC= 1.13D-14 BMatP= 1.10D-12
 IDIUse=1 WtCom= 1.00D+00 WtEn= 0.00D+00
 Coeff-Com: -0.299D-04 0.223D-03-0.302D-03 0.296D-02-0.310D-01 0.178D+00
 Coeff-Com: -0.536D+00 0.139D+01
 Coeff:     -0.299D-04 0.223D-03-0.302D-03 0.296D-02-0.310D-01 0.178D+00
 Coeff:     -0.536D+00 0.139D+01
 Gap=     0.343 Goal=   None    Shift=    0.000
 RMSDP=2.74D-08 MaxDP=9.29D-08 DE=-6.18D-12 OVMax= 1.67D-07

 Cycle   9  Pass 1  IDiag  3:
 E=-0.948857711048845E-01 Delta-E=        0.000000000000 Rises=F Damp=F
 DIIS: error= 6.71D-09 at cycle   9 NSaved=   9.
 NSaved= 9 IEnMin= 9 EnMin=-0.948857711048845E-01 IErMin= 9 ErrMin= 6.71D-09
 ErrMax= 6.71D-09  0.00D+00 EMaxC= 1.00D-01 BMatC= 6.60D-16 BMatP= 1.13D-14
 IDIUse=1 WtCom= 1.00D+00 WtEn= 0.00D+00
 Coeff-Com:  0.532D-05-0.688D-04 0.521D-04-0.126D-02 0.152D-01-0.899D-01
 Coeff-Com:  0.279D+00-0.880D+00 0.168D+01
 Coeff:      0.532D-05-0.688D-04 0.521D-04-0.126D-02 0.152D-01-0.899D-01
 Coeff:      0.279D+00-0.880D+00 0.168D+01
 Gap=     0.343 Goal=   None    Shift=    0.000
 RMSDP=8.45D-09 MaxDP=4.52D-08 DE=-8.53D-14 OVMax= 6.19D-08

 Cycle  10  Pass 2  IDiag  1:
 SCF Done:  E(RAM1) = -0.948857711049E-01 A.U. after   10 cycles
            NFock=  9  Conv=0.84D-08     -V/T= 0.9926
 KE=-1.287339895411D+01 PE=-1.078795434828D+02 EE= 5.516851768985D+01
 Leave Link  502 at Fri Mar  3 14:33:31 2017, MaxMem=    33554432 cpu:         0.0
 (Enter /n/sw/g09_D.01/g09/l701.exe)
 Compute integral first derivatives.
 ... and contract with generalized density number  0.
 Leave Link  701 at Fri Mar  3 14:33:31 2017, MaxMem=    33554432 cpu:         0.1
 (Enter /n/sw/g09_D.01/g09/l702.exe)
 L702 exits ... SP integral derivatives will be done elsewhere.
 Leave Link  702 at Fri Mar  3 14:33:31 2017, MaxMem=    33554432 cpu:         0.0
 (Enter /n/sw/g09_D.01/g09/l703.exe)
 Compute integral first derivatives, UseDBF=F ICtDFT=           0.
 Integral derivatives from FoFJK, PRISM(SPDF).
 Calling FoFJK, ICntrl=      2127 FMM=F ISym2X=0 I1Cent= 0 IOpClX= 0 NMat=1 NMatS=1 NMatT=0.
 FoFJK:  IHMeth= 8 ICntrl=    2127 DoSepK=F KAlg= 0 I1Cent=   0 FoldK=F
 IRaf=         0 NMat=   1 IRICut=       1 DoRegI=T DoRafI=F ISym2E= 0.
 FoFCou: FMM=F IPFlag=           0 FMFlag=      100000 FMFlg1=         800
         NFxFlg=           0 DoJE=F BraDBF=F KetDBF=F FulRan=T
         wScrn=  0.000000 ICntrl=    2127 IOpCl=  0 I1Cent=           0 NGrid=           0
         NMat0=    1 NMatS0=      1 NMatT0=    0 NMatD0=    1 NMtDS0=    0 NMtDT0=    0
 Symmetry not used in FoFCou.
 Leave Link  703 at Fri Mar  3 14:33:31 2017, MaxMem=    33554432 cpu:         0.0
 (Enter /n/sw/g09_D.01/g09/l716.exe)
 Dipole        =-3.28849943D+00-1.45344533D-06 1.17887528D-06
 ***** Axes restored to original set *****
 -------------------------------------------------------------------
 Center     Atomic                   Forces (Hartrees/Bohr)
 Number     Number              X              Y              Z
 -------------------------------------------------------------------
      1        6           0.038490716   -0.000001155   -0.000000542
      2        1          -0.004588499   -0.015657480   -0.016621311
      3        1          -0.004588131   -0.006566118    0.021871325
      4        1          -0.004587858    0.022224678   -0.005249533
      5       17           0.007812930   -0.000000008   -0.000000004
      6       17          -0.032539157    0.000000082    0.000000064
 -------------------------------------------------------------------
 Cartesian Forces:  Max     0.038490716 RMS     0.015327743
 Leave Link  716 at Fri Mar  3 14:33:31 2017, MaxMem=    33554432 cpu:         0.0
 (Enter /n/sw/g09_D.01/g09/l103.exe)

 GradGradGradGradGradGradGradGradGradGradGradGradGradGradGradGradGradGrad
 Berny optimization.
 Using GEDIIS/GDIIS optimizer.
 FormGI is forming the generalized inverse of G from B-inverse, IUseBI=4.
 Internal  Forces:  Max     0.032539157 RMS     0.007994743
 Search for a local minimum.
 Step number   3 out of a maximum of   44
 All quantities printed in internal units (Hartrees-Bohrs-Radians)
 RMS Force = .79947D-02 SwitMx=.10000D-02 MixMth= 1
 Mixed Optimization -- RFO/linear search
 Update second derivatives using D2CorX and points    2    3
 DE= -2.23D-02 DEPred=-2.16D-02 R= 1.03D+00
 TightC=F SS=  1.41D+00  RLast= 5.21D-01 DXNew= 8.4853D-01 1.5633D+00
 Trust test= 1.03D+00 RLast= 5.21D-01 DXMaxT set to 8.49D-01
 ITU=  1  1  0
 Use linear search instead of GDIIS.
     Eigenvalues ---    0.02726   0.03395   0.03395   0.06447   0.06447
     Eigenvalues ---    0.09645   0.09645   0.10496   0.18529   0.18529
     Eigenvalues ---    0.32104   0.48246
 RFO step:  Lambda=-8.45668288D-03 EMin= 2.72585311D-02
 Quartic linear search produced a step of  0.05691.
 Iteration  1 RMS(Cart)=  0.02848731 RMS(Int)=  0.00090826
 Iteration  2 RMS(Cart)=  0.00032713 RMS(Int)=  0.00080121
 Iteration  3 RMS(Cart)=  0.00000032 RMS(Int)=  0.00080121
 ITry= 1 IFail=0 DXMaxC= 9.84D-02 DCOld= 1.00D+10 DXMaxT= 8.49D-01 DXLimC= 3.00D+00 Rises=F
 Variable       Old X    -DE/DX   Delta X   Delta X   Delta X     New X
                                 (Linear)    (Quad)   (Total)
    R1        2.06811   0.01556  -0.00970   0.04125   0.03182   2.09993
    R2        2.06811   0.01556  -0.00970   0.04126   0.03182   2.09993
    R3        2.06811   0.01556  -0.00970   0.04126   0.03182   2.09993
    R4        3.19544   0.03254   0.01127   0.08467   0.09594   3.29138
    R5        4.79606   0.00427   0.00924   0.12701   0.13614   4.93220
    R6        4.79605   0.00427   0.00924   0.12701   0.13614   4.93219
    R7        4.79605   0.00427   0.00924   0.12701   0.13614   4.93219
    A1        1.81132   0.00339   0.00438   0.03995   0.04259   1.85391
    A2        1.81132   0.00339   0.00438   0.03995   0.04259   1.85391
    A3        2.00178  -0.00289  -0.00358  -0.03407  -0.03736   1.96442
    A4        1.81132   0.00339   0.00438   0.03995   0.04260   1.85391
    A5        2.00178  -0.00289  -0.00358  -0.03407  -0.03736   1.96442
    A6        2.00178  -0.00289  -0.00358  -0.03407  -0.03736   1.96442
    A7        1.59921  -0.00628  -0.00149  -0.03796  -0.03891   1.56030
    A8        1.59921  -0.00628  -0.00149  -0.03796  -0.03891   1.56031
    A9        1.59922  -0.00628  -0.00149  -0.03796  -0.03891   1.56031
   A10        0.69233   0.00574  -0.00354   0.00659   0.00262   0.69494
   A11        0.69233   0.00574  -0.00354   0.00659   0.00262   0.69494
   A12        0.69233   0.00574  -0.00354   0.00659   0.00262   0.69494
    D1       -0.94442  -0.00299  -0.00348  -0.03519  -0.04002  -0.98443
    D2        0.94441   0.00299   0.00348   0.03519   0.04002   0.98443
    D3        3.14159   0.00000   0.00000   0.00000   0.00000   3.14159
    D4        0.94442   0.00299   0.00348   0.03519   0.04002   0.98444
    D5       -0.94441  -0.00299  -0.00348  -0.03519  -0.04002  -0.98443
    D6       -3.14159   0.00000   0.00000   0.00000   0.00000  -3.14159
    D7       -0.94442  -0.00299  -0.00348  -0.03519  -0.04002  -0.98443
    D8        0.94441   0.00299   0.00348   0.03519   0.04002   0.98443
    D9        3.14159   0.00000   0.00000   0.00000   0.00000   3.14159
   D10        0.56041   0.00065  -0.00042   0.00075   0.00030   0.56070
   D11       -0.56040  -0.00065   0.00042  -0.00075  -0.00030  -0.56070
   D12       -0.56041  -0.00065   0.00042  -0.00074  -0.00030  -0.56070
   D13        0.56040   0.00065  -0.00042   0.00075   0.00030   0.56070
   D14        0.56041   0.00065  -0.00042   0.00075   0.00030   0.56070
   D15       -0.56040  -0.00065   0.00042  -0.00074  -0.00030  -0.56070
         Item               Value     Threshold  Converged?
 Maximum Force            0.032539     0.000450     NO 
 RMS     Force            0.007995     0.000300     NO 
 Maximum Displacement     0.098351     0.001800     NO 
 RMS     Displacement     0.028321     0.001200     NO 
 Predicted change in Energy=-4.726257D-03
 Lowest energy point so far.  Saving SCF results.
 GradGradGradGradGradGradGradGradGradGradGradGradGradGradGradGradGradGrad

 Leave Link  103 at Fri Mar  3 14:33:31 2017, MaxMem=    33554432 cpu:         0.0
 (Enter /n/sw/g09_D.01/g09/l202.exe)
                          Input orientation:                          
 ---------------------------------------------------------------------
 Center     Atomic      Atomic             Coordinates (Angstroms)
 Number     Number       Type             X           Y           Z
 ---------------------------------------------------------------------
      1          6           0       -0.426490    0.000000    0.000002
      2          1           0       -0.000294   -0.703691   -0.747007
      3          1           0       -0.000290   -0.295084    0.982920
      4          1           0       -0.000288    0.998773   -0.235909
      5         17           0        2.399485    0.000002    0.000002
      6         17           0       -2.168213    0.000005    0.000005
 ---------------------------------------------------------------------
                    Distance matrix (angstroms):
                    1          2          3          4          5
     1  C    0.000000
     2  H    1.111237   0.000000
     3  H    1.111237   1.777528   0.000000
     4  H    1.111238   1.777528   1.777529   0.000000
     5  Cl   2.825975   2.610009   2.610004   2.610002   0.000000
     6  Cl   1.741722   2.398559   2.398559   2.398560   4.567698
                    6
     6  Cl   0.000000
 This structure is nearly, but not quite of a higher symmetry.
 Consider Symm=Loose if the higher symmetry is desired.
 Stoichiometry    CH3Cl2(1-)
 Framework group  C1[X(CH3Cl2)]
 Deg. of freedom    12
 Full point group                 C1      NOp   1
 RotChk:  IX=2 Diff= 1.22D+00
 Largest Abelian subgroup         C1      NOp   1
 Largest concise Abelian subgroup C1      NOp   1
                         Standard orientation:                         
 ---------------------------------------------------------------------
 Center     Atomic      Atomic             Coordinates (Angstroms)
 Number     Number       Type             X           Y           Z
 ---------------------------------------------------------------------
      1          6           0       -0.388019   -0.103150    0.221192
      2          1           0        0.492819   -0.641948    0.631886
      3          1           0       -0.142162    0.979262    0.273995
      4          1           0       -0.432403   -0.359052   -0.859268
      5         17           0        2.004110    0.532758   -1.142434
      6         17           0       -1.862354   -0.495074    1.061625
 ---------------------------------------------------------------------
 Rotational constants (GHZ):    158.7080847      1.3681114      1.3681114
 Leave Link  202 at Fri Mar  3 14:33:31 2017, MaxMem=    33554432 cpu:         0.0
 (Enter /n/sw/g09_D.01/g09/l301.exe)
 Standard basis: VSTO-6G (5D, 7F)
 Ernie: Thresh=  0.10000D-02 Tol=  0.10000D-05 Strict=F.
  NNHCO=     0 NNPyr=     0 NCTC=     0               EPep=         0.000000000
    EC=        30.648309035  ECS=         0.512994822   EG=         0.111539239
   EHC=         0.000000000  EAt=       -33.052414446  AtH=         0.613817032
 EPDDG=         0.000000000  ECC=        31.272843097 EAtT=        33.666231478
 There are    15 symmetry adapted cartesian basis functions of A   symmetry.
 There are    15 symmetry adapted basis functions of A   symmetry.
    15 basis functions,    90 primitive gaussians,    15 cartesian basis functions
    11 alpha electrons       11 beta electrons
       nuclear repulsion energy        64.9390745748 Hartrees.
 IExCor=    0 DFT=F Ex=HF Corr=None ExCW=0 ScaHFX=  1.000000
 ScaDFX=  1.000000  1.000000  1.000000  1.000000 ScalE2=  1.000000  1.000000
 IRadAn=      0 IRanWt=     -1 IRanGd=            0 ICorTp=0 IEmpDi=  4
 Integral buffers will be    131072 words long.
 Regular integral format.
 Two-electron integral symmetry is turned off.
 Leave Link  301 at Fri Mar  3 14:33:31 2017, MaxMem=    33554432 cpu:         0.1
 (Enter /n/sw/g09_D.01/g09/l302.exe)
 Do NDO integrals.
 NPDir=0 NMtPBC=     1 NCelOv=     1 NCel=       1 NClECP=     1 NCelD=      1
         NCelK=      1 NCelE2=     1 NClLst=     1 CellRange=     0.0.
 One-electron integrals computed using PRISM.
 NBasis=    15 RedAO= F EigKep=  0.00D+00  NBF=    15
 NBsUse=    15 1.00D-04 EigRej=  0.00D+00 NBFU=    15
 Leave Link  302 at Fri Mar  3 14:33:31 2017, MaxMem=    33554432 cpu:         0.1
 (Enter /n/sw/g09_D.01/g09/l303.exe)
 DipDrv:  MaxL=1.
 Leave Link  303 at Fri Mar  3 14:33:31 2017, MaxMem=    33554432 cpu:         0.0
 (Enter /n/sw/g09_D.01/g09/l401.exe)
 Initial guess from the checkpoint file:  "/scratch/Gau-27554.chk"
 B after Tr=     0.000000    0.000000    0.000000
         Rot=    0.901865    0.331480   -0.195284   -0.196530 Ang=  51.19 deg.
 Guess basis will be translated and rotated to current coordinates.
 JPrj=0 DoOrth=T DoCkMO=T.
 Leave Link  401 at Fri Mar  3 14:33:31 2017, MaxMem=    33554432 cpu:         0.1
 (Enter /n/sw/g09_D.01/g09/l502.exe)
 Closed shell SCF:
 Using DIIS extrapolation, IDIIS=  1040.
 Overlap will be assumed to be unity.
 Two-electron integral symmetry not used.
 Keep J ints in memory in canonical form, NReq=884770.
 IVT=       79028 IEndB=       79028 NGot=    33554432 MDV=    33474844
 LenX=    33474844 LenY=    33473962
 Requested convergence on RMS density matrix=1.00D-08 within 128 cycles.
 Requested convergence on MAX density matrix=1.00D-06.
 Requested convergence on             energy=1.00D-06.
 No special actions if energy rises.
 FoFCou: FMM=F IPFlag=           0 FMFlag=           0 FMFlg1=           0
         NFxFlg=           0 DoJE=F BraDBF=F KetDBF=F FulRan=T
         wScrn=  0.000000 ICntrl=     600 IOpCl=  2 I1Cent=           0 NGrid=           0
         NMat0=    1 NMatS0=     33 NMatT0=    0 NMatD0=    1 NMtDS0=    0 NMtDT0=    0
 Symmetry not used in FoFCou.

 Cycle   1  Pass 1  IDiag  1:
 E=-0.999144899078601E-01
 DIIS: error= 3.15D-03 at cycle   1 NSaved=   1.
 NSaved= 1 IEnMin= 1 EnMin=-0.999144899078601E-01 IErMin= 1 ErrMin= 3.15D-03
 ErrMax= 3.15D-03  0.00D+00 EMaxC= 1.00D-01 BMatC= 2.92D-04 BMatP= 2.92D-04
 IDIUse=3 WtCom= 9.68D-01 WtEn= 3.15D-02
 Coeff-Com:  0.100D+01
 Coeff-En:   0.100D+01
 Coeff:      0.100D+01
 GapD=    2.000 DampG=2.000 DampE=1.000 DampFc=2.0000 IDamp=-1.
 RMSDP=1.91D-03 MaxDP=6.86D-03              OVMax= 0.00D+00

 Cycle   2  Pass 1  IDiag  3:
 E=-0.100773734313250     Delta-E=       -0.000859244405 Rises=F Damp=F
 DIIS: error= 8.70D-04 at cycle   2 NSaved=   2.
 NSaved= 2 IEnMin= 2 EnMin=-0.100773734313250     IErMin= 2 ErrMin= 8.70D-04
 ErrMax= 8.70D-04  0.00D+00 EMaxC= 1.00D-01 BMatC= 2.69D-05 BMatP= 2.92D-04
 IDIUse=3 WtCom= 9.91D-01 WtEn= 8.70D-03
 Coeff-Com: -0.396D+00 0.140D+01
 Coeff-En:   0.000D+00 0.100D+01
 Coeff:     -0.392D+00 0.139D+01
 Gap=     0.335 Goal=   None    Shift=    0.000
 RMSDP=9.20D-04 MaxDP=3.63D-03 DE=-8.59D-04 OVMax= 6.50D-03

 Cycle   3  Pass 1  IDiag  3:
 E=-0.100880209534637     Delta-E=       -0.000106475221 Rises=F Damp=F
 DIIS: error= 1.12D-04 at cycle   3 NSaved=   3.
 NSaved= 3 IEnMin= 3 EnMin=-0.100880209534637     IErMin= 3 ErrMin= 1.12D-04
 ErrMax= 1.12D-04  0.00D+00 EMaxC= 1.00D-01 BMatC= 4.44D-07 BMatP= 2.69D-05
 IDIUse=3 WtCom= 9.99D-01 WtEn= 1.12D-03
 Coeff-Com:  0.150D+00-0.591D+00 0.144D+01
 Coeff-En:   0.000D+00 0.000D+00 0.100D+01
 Coeff:      0.150D+00-0.590D+00 0.144D+01
 Gap=     0.335 Goal=   None    Shift=    0.000
 RMSDP=1.70D-04 MaxDP=7.22D-04 DE=-1.06D-04 OVMax= 1.04D-03

 Cycle   4  Pass 1  IDiag  3:
 E=-0.100882781788087     Delta-E=       -0.000002572253 Rises=F Damp=F
 DIIS: error= 2.00D-05 at cycle   4 NSaved=   4.
 NSaved= 4 IEnMin= 4 EnMin=-0.100882781788087     IErMin= 4 ErrMin= 2.00D-05
 ErrMax= 2.00D-05  0.00D+00 EMaxC= 1.00D-01 BMatC= 1.20D-08 BMatP= 4.44D-07
 IDIUse=1 WtCom= 1.00D+00 WtEn= 0.00D+00
 Coeff-Com: -0.924D-01 0.366D+00-0.950D+00 0.168D+01
 Coeff:     -0.924D-01 0.366D+00-0.950D+00 0.168D+01
 Gap=     0.335 Goal=   None    Shift=    0.000
 RMSDP=3.88D-05 MaxDP=1.38D-04 DE=-2.57D-06 OVMax= 3.02D-04

 Cycle   5  Pass 1  IDiag  3:
 E=-0.100882874310557     Delta-E=       -0.000000092522 Rises=F Damp=F
 DIIS: error= 3.22D-06 at cycle   5 NSaved=   5.
 NSaved= 5 IEnMin= 5 EnMin=-0.100882874310557     IErMin= 5 ErrMin= 3.22D-06
 ErrMax= 3.22D-06  0.00D+00 EMaxC= 1.00D-01 BMatC= 2.02D-10 BMatP= 1.20D-08
 IDIUse=1 WtCom= 1.00D+00 WtEn= 0.00D+00
 Coeff-Com:  0.236D-01-0.936D-01 0.245D+00-0.500D+00 0.133D+01
 Coeff:      0.236D-01-0.936D-01 0.245D+00-0.500D+00 0.133D+01
 Gap=     0.335 Goal=   None    Shift=    0.000
 RMSDP=3.70D-06 MaxDP=1.82D-05 DE=-9.25D-08 OVMax= 2.30D-05

 Cycle   6  Pass 1  IDiag  3:
 E=-0.100882875399222     Delta-E=       -0.000000001089 Rises=F Damp=F
 DIIS: error= 5.07D-07 at cycle   6 NSaved=   6.
 NSaved= 6 IEnMin= 6 EnMin=-0.100882875399222     IErMin= 6 ErrMin= 5.07D-07
 ErrMax= 5.07D-07  0.00D+00 EMaxC= 1.00D-01 BMatC= 6.88D-12 BMatP= 2.02D-10
 IDIUse=1 WtCom= 1.00D+00 WtEn= 0.00D+00
 Coeff-Com: -0.662D-02 0.262D-01-0.677D-01 0.144D+00-0.510D+00 0.141D+01
 Coeff:     -0.662D-02 0.262D-01-0.677D-01 0.144D+00-0.510D+00 0.141D+01
 Gap=     0.335 Goal=   None    Shift=    0.000
 RMSDP=5.74D-07 MaxDP=2.72D-06 DE=-1.09D-09 OVMax= 3.08D-06

 Cycle   7  Pass 1  IDiag  3:
 E=-0.100882875432632     Delta-E=       -0.000000000033 Rises=F Damp=F
 DIIS: error= 3.87D-08 at cycle   7 NSaved=   7.
 NSaved= 7 IEnMin= 7 EnMin=-0.100882875432632     IErMin= 7 ErrMin= 3.87D-08
 ErrMax= 3.87D-08  0.00D+00 EMaxC= 1.00D-01 BMatC= 5.98D-14 BMatP= 6.88D-12
 IDIUse=1 WtCom= 1.00D+00 WtEn= 0.00D+00
 Coeff-Com:  0.131D-03-0.527D-03 0.119D-02-0.276D-02 0.257D-01-0.167D+00
 Coeff-Com:  0.114D+01
 Coeff:      0.131D-03-0.527D-03 0.119D-02-0.276D-02 0.257D-01-0.167D+00
 Coeff:      0.114D+01
 Gap=     0.335 Goal=   None    Shift=    0.000
 RMSDP=6.11D-08 MaxDP=2.26D-07 DE=-3.34D-11 OVMax= 4.33D-07

 Cycle   8  Pass 1  IDiag  3:
 E=-0.100882875432973     Delta-E=        0.000000000000 Rises=F Damp=F
 DIIS: error= 7.08D-09 at cycle   8 NSaved=   8.
 NSaved= 8 IEnMin= 8 EnMin=-0.100882875432973     IErMin= 8 ErrMin= 7.08D-09
 ErrMax= 7.08D-09  0.00D+00 EMaxC= 1.00D-01 BMatC= 1.35D-15 BMatP= 5.98D-14
 IDIUse=1 WtCom= 1.00D+00 WtEn= 0.00D+00
 Coeff-Com:  0.104D-04-0.376D-04 0.175D-03-0.293D-03-0.545D-02 0.535D-01
 Coeff-Com: -0.456D+00 0.141D+01
 Coeff:      0.104D-04-0.376D-04 0.175D-03-0.293D-03-0.545D-02 0.535D-01
 Coeff:     -0.456D+00 0.141D+01
 Gap=     0.335 Goal=   None    Shift=    0.000
 RMSDP=1.06D-08 MaxDP=5.85D-08 DE=-3.41D-13 OVMax= 6.63D-08

 Cycle   9  Pass 1  IDiag  3:
 E=-0.100882875433001     Delta-E=        0.000000000000 Rises=F Damp=F
 DIIS: error= 2.58D-09 at cycle   9 NSaved=   9.
 NSaved= 9 IEnMin= 9 EnMin=-0.100882875433001     IErMin= 9 ErrMin= 2.58D-09
 ErrMax= 2.58D-09  0.00D+00 EMaxC= 1.00D-01 BMatC= 1.12D-16 BMatP= 1.35D-15
 IDIUse=1 WtCom= 1.00D+00 WtEn= 0.00D+00
 Coeff-Com: -0.319D-05 0.103D-04-0.751D-04 0.118D-03 0.351D-02-0.329D-01
 Coeff-Com:  0.282D+00-0.101D+01 0.176D+01
 Coeff:     -0.319D-05 0.103D-04-0.751D-04 0.118D-03 0.351D-02-0.329D-01
 Coeff:      0.282D+00-0.101D+01 0.176D+01
 Gap=     0.335 Goal=   None    Shift=    0.000
 RMSDP=3.74D-09 MaxDP=1.85D-08 DE=-2.84D-14 OVMax= 2.83D-08

 Cycle  10  Pass 2  IDiag  1:
 SCF Done:  E(RAM1) = -0.100882875433     A.U. after   10 cycles
            NFock=  9  Conv=0.37D-08     -V/T= 0.9921
 KE=-1.282535010256D+01 PE=-1.068869654058D+02 EE= 5.467235805808D+01
 Leave Link  502 at Fri Mar  3 14:33:31 2017, MaxMem=    33554432 cpu:         0.0
 (Enter /n/sw/g09_D.01/g09/l701.exe)
 Compute integral first derivatives.
 ... and contract with generalized density number  0.
 Leave Link  701 at Fri Mar  3 14:33:31 2017, MaxMem=    33554432 cpu:         0.1
 (Enter /n/sw/g09_D.01/g09/l702.exe)
 L702 exits ... SP integral derivatives will be done elsewhere.
 Leave Link  702 at Fri Mar  3 14:33:31 2017, MaxMem=    33554432 cpu:         0.0
 (Enter /n/sw/g09_D.01/g09/l703.exe)
 Compute integral first derivatives, UseDBF=F ICtDFT=           0.
 Integral derivatives from FoFJK, PRISM(SPDF).
 Calling FoFJK, ICntrl=      2127 FMM=F ISym2X=0 I1Cent= 0 IOpClX= 0 NMat=1 NMatS=1 NMatT=0.
 FoFJK:  IHMeth= 8 ICntrl=    2127 DoSepK=F KAlg= 0 I1Cent=   0 FoldK=F
 IRaf=         0 NMat=   1 IRICut=       1 DoRegI=T DoRafI=F ISym2E= 0.
 FoFCou: FMM=F IPFlag=           0 FMFlag=      100000 FMFlg1=         800
         NFxFlg=           0 DoJE=F BraDBF=F KetDBF=F FulRan=T
         wScrn=  0.000000 ICntrl=    2127 IOpCl=  0 I1Cent=           0 NGrid=           0
         NMat0=    1 NMatS0=      1 NMatT0=    0 NMatD0=    1 NMtDS0=    0 NMtDT0=    0
 Symmetry not used in FoFCou.
 Leave Link  703 at Fri Mar  3 14:33:31 2017, MaxMem=    33554432 cpu:         0.0
 (Enter /n/sw/g09_D.01/g09/l716.exe)
 Dipole        =-2.78398078D+00-7.40074589D-01 1.58699793D+00
 ***** Axes restored to original set *****
 -------------------------------------------------------------------
 Center     Atomic                   Forces (Hartrees/Bohr)
 Number     Number              X              Y              Z
 -------------------------------------------------------------------
      1        6           0.026178921    0.000000338    0.000000113
      2        1          -0.007662240   -0.004500536   -0.004777535
      3        1          -0.007662277   -0.001887131    0.006286072
      4        1          -0.007662346    0.006387343   -0.001508633
[...]
     15  0.000000D+00  0.000000D+00  0.215181D-03  0.296135D-03 -0.227366D-03
     16 -0.131989D+00  0.000000D+00  0.000000D+00 -0.274298D-01  0.239617D-02
     17  0.000000D+00 -0.257866D-01  0.000000D+00  0.133046D-01  0.173688D-02
     18  0.000000D+00  0.000000D+00 -0.257865D-01  0.141236D-01 -0.108031D-02
                6             7             8             9            10 
      6  0.189823D+00
      7  0.447109D-02  0.669829D-01
      8 -0.166925D-01 -0.237773D-01  0.642384D-01
      9 -0.279753D-01  0.792014D-01 -0.773436D-01  0.298649D+00
     10 -0.549107D-03  0.636837D-02  0.428078D-02 -0.152774D-02  0.669832D-01
     11 -0.217034D-02 -0.178050D-02 -0.122034D-01  0.106253D-01  0.804794D-01
     12  0.469600D-02  0.418206D-02  0.271002D-01 -0.994841D-02 -0.190092D-01
     13 -0.862684D-03 -0.305999D-02 -0.340782D-03  0.113515D-02 -0.306003D-02
     14 -0.227363D-03  0.116993D-03 -0.384724D-03  0.125452D-03 -0.395952D-03
     15 -0.588418D-03 -0.389659D-03  0.125455D-03 -0.764949D-03  0.935285D-04
     16  0.254358D-02 -0.274299D-01  0.100485D-02 -0.334676D-02 -0.274299D-01
     17 -0.108030D-02  0.557917D-02  0.257558D-02  0.596050D-03 -0.188836D-01
     18  0.160774D-02 -0.185838D-01  0.596100D-03  0.769142D-03  0.446034D-02
               11            12            13            14            15 
     11  0.307027D+00
     12 -0.628311D-01  0.558597D-01
     13  0.115349D-02 -0.272453D-03  0.142712D-01
     14 -0.778546D-03  0.101916D-03  0.000000D+00  0.545861D-03
     15  0.101915D-03 -0.371134D-03  0.000000D+00  0.000000D+00  0.545855D-03
     16 -0.340070D-02  0.803315D-03 -0.108468D-01  0.000000D+00  0.000000D+00
     17  0.704588D-03  0.484234D-03  0.000000D+00  0.963503D-03  0.000000D+00
     18  0.484205D-03  0.264016D-02  0.000000D+00  0.000000D+00  0.963486D-03
               16            17            18 
     16  0.225125D+00
     17  0.000000D+00  0.198060D-01
     18  0.000000D+00  0.000000D+00  0.198059D-01
 FormGI is forming the generalized inverse of G from B-inverse, IUseBI=4.
 Force constants in internal coordinates: 
                1             2             3             4             5 
      1  0.253888D+00
      2  0.167456D-01  0.253888D+00
      3  0.167455D-01  0.167455D-01  0.253887D+00
      4  0.124525D-01  0.124525D-01  0.124525D-01  0.225125D+00
      5  0.571718D-02  0.553519D-02  0.553530D-02  0.342249D-02  0.563356D-02
      6  0.553501D-02  0.571686D-02  0.553528D-02  0.342247D-02  0.308147D-03
      7  0.553500D-02  0.553517D-02  0.571667D-02  0.342246D-02  0.308161D-03
      8 -0.272135D-02 -0.272126D-02 -0.385040D-02 -0.903283D-02  0.251132D-02
      9 -0.272139D-02 -0.385034D-02 -0.272127D-02 -0.903283D-02  0.251133D-02
     10  0.124306D-01 -0.118542D-02 -0.118539D-02  0.977810D-02 -0.612621D-02
     11 -0.385022D-02 -0.272138D-02 -0.272132D-02 -0.903284D-02 -0.539643D-02
     12 -0.118550D-02  0.124305D-01 -0.118540D-02  0.977804D-02  0.326542D-02
     13 -0.118550D-02 -0.118544D-02  0.124305D-01  0.977802D-02  0.326541D-02
     14 -0.386961D-01 -0.294706D-02 -0.294700D-02  0.885910D-02 -0.245218D-02
     15 -0.294719D-02 -0.386962D-01 -0.294701D-02  0.885909D-02  0.327419D-04
     16 -0.294720D-02 -0.294708D-02 -0.386963D-01  0.885909D-02  0.327140D-04
     17  0.443391D-01  0.443391D-01  0.397479D-02  0.155799D-02  0.210405D-02
     18  0.443391D-01  0.397483D-02  0.443390D-01  0.155799D-02  0.210407D-02
     19  0.397490D-02  0.443391D-01  0.443391D-01  0.155799D-02  0.524327D-03
     20  0.456788D-02  0.107429D-01 -0.223833D-02  0.127064D-01  0.164933D-02
     21 -0.456785D-02  0.223839D-02 -0.107428D-01 -0.127064D-01 -0.164934D-02
     22  0.000000D+00 -0.206765D-02  0.206768D-02  0.000000D+00  0.000000D+00
     23 -0.107430D-01 -0.456795D-02  0.223833D-02 -0.127064D-01 -0.109836D-03
     24 -0.223851D-02  0.456786D-02  0.107427D-01  0.127064D-01 -0.123338D-02
     25  0.206760D-02  0.000000D+00 -0.206768D-02  0.000000D+00 -0.414583D-02
     26  0.107429D-01 -0.223839D-02  0.456794D-02  0.127064D-01  0.109851D-03
     27  0.223851D-02 -0.107428D-01 -0.456790D-02 -0.127064D-01  0.123338D-02
     28 -0.206760D-02  0.206764D-02  0.000000D+00  0.000000D+00  0.414584D-02
     29 -0.307107D-01  0.380522D-01  0.293552D-02  0.172825D-03 -0.116102D-02
     30  0.307107D-01 -0.293552D-02 -0.380521D-01 -0.172798D-03  0.116102D-02
     31 -0.380522D-01  0.307107D-01 -0.293554D-02 -0.172845D-03  0.124810D-02
     32  0.293551D-02 -0.307106D-01  0.380520D-01  0.172783D-03  0.293407D-02
     33  0.380522D-01  0.293554D-02 -0.307107D-01  0.172825D-03 -0.124813D-02
     34 -0.293552D-02 -0.380521D-01  0.307106D-01 -0.172790D-03 -0.293404D-02
                6             7             8             9            10 
      6  0.563353D-02
      7  0.308182D-03  0.563352D-02
      8  0.251130D-02 -0.539640D-02  0.170691D-01
      9 -0.539641D-02  0.251130D-02 -0.583396D-02  0.170691D-01
     10  0.326542D-02  0.326542D-02 -0.260082D-02 -0.260082D-02  0.280160D-01
     11  0.251134D-02  0.251133D-02 -0.583391D-02 -0.583389D-02 -0.645221D-03
     12 -0.612622D-02  0.326542D-02 -0.260083D-02 -0.645200D-03 -0.108434D-01
     13  0.326541D-02 -0.612623D-02 -0.645188D-03 -0.260083D-02 -0.108434D-01
     14  0.327783D-04  0.327723D-04 -0.287097D-02 -0.287098D-02  0.325396D-02
     15 -0.245214D-02  0.327271D-04 -0.287097D-02  0.948070D-03  0.967708D-03
     16  0.327053D-04 -0.245211D-02  0.948089D-03 -0.287098D-02  0.967709D-03
     17  0.210396D-02  0.524278D-03  0.286585D-02 -0.232551D-02  0.146814D-02
     18  0.524297D-03  0.210393D-02 -0.232552D-02  0.286584D-02  0.146815D-02
     19  0.210402D-02  0.210397D-02 -0.232549D-02 -0.232547D-02 -0.100381D-02
     20  0.109805D-03 -0.123334D-02  0.374250D-02 -0.453844D-02  0.237702D-02
     21  0.123335D-02 -0.109796D-03  0.453844D-02 -0.374249D-02 -0.237704D-02
     22  0.414582D-02 -0.414583D-02 -0.107963D-02  0.107964D-02  0.000000D+00
     23 -0.164933D-02  0.123335D-02 -0.374254D-02  0.680195D-02 -0.545804D-02
     24  0.164933D-02  0.109820D-03 -0.453845D-02 -0.680190D-02  0.389630D-03
     25  0.000000D+00  0.414583D-02  0.107961D-02  0.000000D+00  0.204429D-01
     26 -0.123337D-02  0.164932D-02 -0.680195D-02  0.374255D-02  0.545805D-02
     27 -0.109839D-03 -0.164933D-02  0.680192D-02  0.453846D-02 -0.389626D-03
     28 -0.414584D-02  0.000000D+00  0.000000D+00 -0.107960D-02 -0.204429D-01
     29 -0.124812D-02  0.293405D-02 -0.872697D-02  0.420464D-02 -0.201911D-02
     30 -0.293408D-02  0.124815D-02 -0.420463D-02  0.872694D-02  0.201911D-02
     31  0.116100D-02 -0.293400D-02  0.872699D-02 -0.432434D-02 -0.217600D-02
     32 -0.116098D-02 -0.124818D-02  0.420459D-02  0.432434D-02  0.574757D-04
     33  0.293400D-02 -0.116098D-02  0.432436D-02 -0.872698D-02  0.217598D-02
     34  0.124817D-02  0.116097D-02 -0.432436D-02 -0.420459D-02 -0.574686D-04
               11            12            13            14            15 
     11  0.170690D-01
     12 -0.260081D-02  0.280159D-01
     13 -0.260081D-02 -0.108434D-01  0.280159D-01
     14  0.948034D-03  0.967726D-03  0.967726D-03  0.920763D-02
     15 -0.287100D-02  0.325398D-02  0.967718D-03  0.268444D-02  0.920769D-02
     16 -0.287100D-02  0.967716D-03  0.325397D-02  0.268444D-02  0.268443D-02
     17 -0.232547D-02  0.146810D-02 -0.100382D-02 -0.757145D-02 -0.757150D-02
     18 -0.232546D-02 -0.100382D-02  0.146809D-02 -0.757145D-02 -0.771873D-03
     19  0.286582D-02  0.146813D-02  0.146811D-02 -0.771863D-03 -0.757149D-02
     20 -0.680192D-02  0.545801D-02  0.389655D-03  0.153595D-02  0.131771D-02
     21  0.680190D-02 -0.389649D-03 -0.545800D-02 -0.153595D-02 -0.388988D-02
     22  0.000000D+00 -0.204429D-01  0.204429D-01  0.000000D+00 -0.160225D-02
     23  0.453845D-02 -0.237700D-02 -0.389652D-03 -0.131770D-02 -0.153594D-02
     24  0.374251D-02  0.237704D-02  0.545801D-02  0.388990D-02  0.153594D-02
     25 -0.107963D-02  0.000000D+00 -0.204429D-01  0.160226D-02  0.000000D+00
     26 -0.453846D-02  0.389643D-03  0.237700D-02  0.131769D-02  0.388988D-02
     27 -0.374253D-02 -0.545803D-02 -0.237702D-02 -0.388990D-02 -0.131769D-02
     28  0.107961D-02  0.204429D-01  0.000000D+00 -0.160226D-02  0.160225D-02
     29  0.432431D-02  0.217600D-02  0.574574D-04  0.516206D-02 -0.513938D-02
     30 -0.432431D-02 -0.574696D-04 -0.217598D-02 -0.516206D-02  0.178794D-02
     31 -0.420463D-02  0.201908D-02 -0.574415D-04  0.513936D-02 -0.516206D-02
     32 -0.872692D-02 -0.201910D-02  0.217594D-02 -0.178795D-02  0.516207D-02
     33  0.420460D-02  0.574436D-04 -0.201907D-02 -0.513935D-02 -0.178798D-02
     34  0.872694D-02 -0.217594D-02  0.201908D-02  0.178796D-02  0.513937D-02
               16            17            18            19            20 
     16  0.920772D-02
     17 -0.771878D-03  0.154020D-01
     18 -0.757153D-02  0.742799D-02  0.154020D-01
     19 -0.757152D-02  0.742800D-02  0.742801D-02  0.154020D-01
     20  0.388987D-02  0.337438D-02 -0.732578D-03 -0.130641D-03  0.702319D-02
     21 -0.131772D-02  0.732590D-03 -0.337436D-02  0.130662D-03 -0.248951D-02
     22  0.160223D-02 -0.894488D-03  0.894499D-03  0.000000D+00 -0.311680D-02
     23 -0.388987D-02 -0.337441D-02  0.130633D-03  0.732567D-03 -0.641461D-02
     24  0.131770D-02 -0.732605D-03 -0.130686D-03  0.337436D-02  0.183230D-02
     25 -0.160224D-02  0.894481D-03  0.000000D+00 -0.894497D-03  0.186027D-02
     26  0.153593D-02 -0.130646D-03  0.337441D-02 -0.732577D-03  0.183231D-02
     27 -0.153593D-02  0.130681D-03  0.732599D-03 -0.337438D-02 -0.178370D-02
     28  0.000000D+00  0.000000D+00 -0.894481D-03  0.894488D-03  0.125652D-02
     29 -0.178795D-02 -0.705151D-03 -0.380110D-02  0.786244D-02 -0.261557D-02
     30  0.513938D-02  0.380109D-02  0.705145D-03 -0.786242D-02 -0.346106D-03
     31  0.178798D-02  0.705150D-03 -0.786245D-02  0.380110D-02  0.444665D-02
     32 -0.513938D-02 -0.380109D-02  0.786241D-02 -0.705135D-03  0.650007D-03
     33  0.516207D-02  0.786245D-02 -0.705144D-03 -0.380110D-02  0.224411D-02
     34 -0.516208D-02 -0.786242D-02  0.380109D-02  0.705137D-03 -0.437908D-02
               21            22            23            24            25 
     21  0.702318D-02
     22 -0.311680D-02  0.222376D-01
     23  0.183231D-02  0.186028D-02  0.702324D-02
     24 -0.178370D-02  0.125651D-02 -0.248949D-02  0.702320D-02
     25  0.125651D-02 -0.111188D-01 -0.311680D-02 -0.311680D-02  0.222377D-01
     26 -0.641462D-02  0.186028D-02 -0.178370D-02  0.183229D-02  0.125654D-02
     27  0.183229D-02  0.125653D-02  0.183229D-02 -0.641462D-02  0.186028D-02
     28  0.186027D-02 -0.111188D-01  0.125654D-02  0.186028D-02 -0.111188D-01
     29 -0.346103D-03  0.852509D-03  0.444669D-02  0.224413D-02 -0.156096D-02
     30 -0.261559D-02  0.852512D-03  0.650012D-03 -0.437909D-02  0.708474D-03
     31  0.224411D-02 -0.156097D-02 -0.261558D-02 -0.346097D-03  0.852507D-03
     32 -0.437906D-02  0.708469D-03 -0.346103D-03 -0.261562D-02  0.852512D-03
     33  0.444664D-02 -0.156098D-02 -0.437912D-02  0.650003D-03  0.708443D-03
     34  0.650006D-03  0.708457D-03  0.224412D-02  0.444666D-02 -0.156098D-02
               26            27            28            29            30 
     26  0.702325D-02
     27 -0.248948D-02  0.702322D-02
     28 -0.311680D-02 -0.311681D-02  0.222376D-01
     29  0.650009D-03 -0.437911D-02  0.708467D-03  0.150446D-01
     30  0.444670D-02  0.224414D-02 -0.156096D-02 -0.231317D-02  0.150446D-01
     31 -0.437913D-02  0.650005D-03  0.708445D-03  0.489788D-02 -0.733618D-02
     32  0.224413D-02  0.444667D-02 -0.156097D-02 -0.733615D-02 -0.295694D-02
     33 -0.261560D-02 -0.346097D-03  0.852504D-03 -0.733619D-02  0.489786D-02
     34 -0.346102D-03 -0.261562D-02  0.852511D-03 -0.295695D-02 -0.733614D-02
               31            32            33            34 
     31  0.150446D-01
     32 -0.231318D-02  0.150445D-01
     33 -0.295695D-02 -0.733615D-02  0.150446D-01
     34 -0.733617D-02  0.489783D-02 -0.231318D-02  0.150445D-01
 Leave Link  716 at Fri Mar  3 14:33:35 2017, MaxMem=    33554432 cpu:         0.0
 (Enter /n/sw/g09_D.01/g09/l103.exe)

 GradGradGradGradGradGradGradGradGradGradGradGradGradGradGradGradGradGrad
 Berny optimization.
 Red2BG is reusing G-inverse.
 Internal  Forces:  Max     0.000297930 RMS     0.000063146
 Search for a local minimum.
 Step number   1 out of a maximum of    2
 All quantities printed in internal units (Hartrees-Bohrs-Radians)
 Second derivative matrix not updated -- analytic derivatives used.
 ITU=  0
     Eigenvalues ---    0.00120   0.00120   0.00524   0.03022   0.05022
     Eigenvalues ---    0.05022   0.07420   0.07420   0.22950   0.28161
     Eigenvalues ---    0.28161   0.33248
 Angle between quadratic step and forces=  57.66 degrees.
 Linear search not attempted -- first point.
 Iteration  1 RMS(Cart)=  0.00224294 RMS(Int)=  0.00000254
 Iteration  2 RMS(Cart)=  0.00000145 RMS(Int)=  0.00000177
 Iteration  3 RMS(Cart)=  0.00000000 RMS(Int)=  0.00000177
 ITry= 1 IFail=0 DXMaxC= 1.15D-02 DCOld= 1.00D+10 DXMaxT= 3.00D-01 DXLimC= 3.00D+00 Rises=F
 Variable       Old X    -DE/DX   Delta X   Delta X   Delta X     New X
                                 (Linear)    (Quad)   (Total)
    R1        2.09618  -0.00003   0.00000   0.00011   0.00011   2.09628
    R2        2.09618  -0.00003   0.00000   0.00011   0.00011   2.09628
    R3        2.09618  -0.00003   0.00000   0.00011   0.00011   2.09628
    R4        3.37572  -0.00030   0.00000  -0.00329  -0.00329   3.37243
    R5        5.18187   0.00005   0.00000   0.01178   0.01178   5.19365
    R6        5.18186   0.00005   0.00000   0.01179   0.01179   5.19364
    R7        5.18185   0.00005   0.00000   0.01179   0.01179   5.19364
    A1        1.94378  -0.00004   0.00000  -0.00152  -0.00153   1.94225
    A2        1.94378  -0.00004   0.00000  -0.00152  -0.00153   1.94225
    A3        1.87619   0.00004   0.00000   0.00165   0.00165   1.87784
    A4        1.94378  -0.00004   0.00000  -0.00152  -0.00153   1.94225
    A5        1.87619   0.00004   0.00000   0.00165   0.00165   1.87784
    A6        1.87619   0.00004   0.00000   0.00165   0.00165   1.87784
    A7        1.48011   0.00006   0.00000   0.00280   0.00280   1.48291
    A8        1.48011   0.00006   0.00000   0.00280   0.00280   1.48291
    A9        1.48011   0.00006   0.00000   0.00279   0.00279   1.48291
   A10        0.68133  -0.00003   0.00000  -0.00194  -0.00194   0.67939
   A11        0.68133  -0.00003   0.00000  -0.00194  -0.00194   0.67939
   A12        0.68134  -0.00003   0.00000  -0.00195  -0.00194   0.67939
    D1       -1.09067   0.00005   0.00000   0.00214   0.00214  -1.08853
    D2        1.09067  -0.00005   0.00000  -0.00214  -0.00214   1.08853
    D3        3.14159   0.00000   0.00000   0.00000   0.00000   3.14159
    D4        1.09067  -0.00005   0.00000  -0.00215  -0.00215   1.08853
    D5       -1.09066   0.00005   0.00000   0.00214   0.00214  -1.08853
    D6       -3.14159   0.00000   0.00000   0.00000   0.00000  -3.14159
    D7       -1.09067   0.00005   0.00000   0.00215   0.00214  -1.08853
    D8        1.09067  -0.00005   0.00000  -0.00214  -0.00214   1.08853
    D9        3.14159   0.00000   0.00000   0.00000   0.00000   3.14159
   D10        0.55917   0.00000   0.00000  -0.00022  -0.00022   0.55896
   D11       -0.55917   0.00000   0.00000   0.00022   0.00022  -0.55896
   D12       -0.55917   0.00000   0.00000   0.00022   0.00022  -0.55896
   D13        0.55917   0.00000   0.00000  -0.00021  -0.00021   0.55896
   D14        0.55917   0.00000   0.00000  -0.00022  -0.00021   0.55896
   D15       -0.55917   0.00000   0.00000   0.00021   0.00021  -0.55896
         Item               Value     Threshold  Converged?
 Maximum Force            0.000298     0.000450     YES
 RMS     Force            0.000063     0.000300     YES
 Maximum Displacement     0.011533     0.001800     NO 
 RMS     Displacement     0.002243     0.001200     NO 
 Predicted change in Energy=-2.214216D-06
 GradGradGradGradGradGradGradGradGradGradGradGradGradGradGradGradGradGrad

 Leave Link  103 at Fri Mar  3 14:33:35 2017, MaxMem=    33554432 cpu:         0.0
 (Enter /n/sw/g09_D.01/g09/l9999.exe)
 1\1\GINC-DAE13\Freq\RAM1\ZDO\C1H3Cl2(1-)\ROOT\03-Mar-2017\0\\#P Geom=A
 llCheck Guess=TCheck SCRF=Check GenChk RAM1/ZDO Freq\\Title Card Requi
 red\\-1,1\C,-0.3789384927,0.0000002789,0.0000019687\H,-0.0454251518,-0
 .725403638,-0.7700561835\H,-0.0454209672,-0.3041887257,1.0132479279\H,
 -0.0454190641,1.0295907065,-0.2431871267\Cl,2.484406719,0.000001603,0.
 0000019626\Cl,-2.1652930432,0.0000047754,0.000004451\\Version=EM64L-G0
 9RevD.01\State=1-A\HF=-0.1038967\RMSD=3.595e-10\RMSF=1.704e-04\ZeroPoi
 nt=0.037072\Thermal=0.0423298\Dipole=-3.3123979,-0.0000002,0.0000006\D
 ipoleDeriv=1.5969413,-0.000004,-0.0000021,-0.0000034,0.0040631,0.00000
 03,-0.000002,0.0000003,0.0040637,0.0139427,-0.0676118,-0.0717739,-0.04
 00825,0.0804303,-0.002238,-0.0425505,-0.0022376,0.080163,0.0139449,-0.
 0283521,0.0944412,-0.0168078,0.0821682,0.0012348,0.0559886,0.0012343,0
 .078426,0.0139466,0.0959647,-0.0226667,0.0568929,0.0782925,0.0010029,-
 0.0134376,0.0010031,0.0823021,-1.3709101,0.,0.0000002,0.0000001,-0.935
 4792,0.,0.0000001,0.,-0.9354791,-1.2678638,0.0000021,0.0000012,0.00000
 2,-0.3094752,0.,0.0000011,0.,-0.3094751\Polar=35.0318038,-0.0000426,8.
 3881879,-0.0000248,0.0000003,8.3881883\HyperPolar=-982.1547897,0.00050
 16,15.9603538,15.3513844,0.0004654,-0.0000746,-12.8217455,15.9602944,-
 15.3515548,12.821654\PG=C01 [X(C1H3Cl2)]\NImag=0\\0.27392252,0.0000004
 1,0.50673907,0.00000023,0.00000032,0.50673926,-0.04922926,0.04931289,0
 .05234847,0.06698234,0.05142336,-0.15321663,-0.12000450,-0.05670138,0.
 17306534,0.05458895,-0.12000449,-0.16756266,-0.06019180,0.14017495,0.1
 8982264,-0.04922977,0.02067894,-0.06888108,0.00636834,-0.00081734,0.00
 447109,0.06698290,0.02156394,-0.06004936,0.06621425,-0.00273155,0.0058
 2348,-0.01669246,-0.02377725,0.06423843,-0.07182911,0.06621420,-0.2607
 2906,-0.00363299,-0.00021745,-0.02797530,0.07920144,-0.07734358,0.2986
 4859,-0.04922996,-0.06999250,0.01653219,0.00636836,0.00451184,-0.00054
 911,0.00636837,0.00428078,-0.00152774,0.06698315,-0.07298810,-0.267901
 73,0.05378996,-0.00346359,-0.02684780,-0.00217034,-0.00178050,-0.01220
 339,0.01062529,0.08047938,0.30702690,0.01723974,0.05379000,-0.05287624
 ,-0.00294345,-0.01864533,0.00469600,0.00418206,0.02710024,-0.00994841,
 -0.01900922,-0.06283105,0.05585968,0.00575557,-0.00000007,-0.00000002,
 -0.00305997,-0.00081265,-0.00086268,-0.00305999,-0.00034078,0.00113515
 ,-0.00306003,0.00115349,-0.00027245,0.01427120,-0.00000002,0.00021517,
 0.,0.00027897,-0.00056124,-0.00022736,0.00011699,-0.00038472,0.0001254
 5,-0.00039595,-0.00077855,0.00010192,0.,0.00054586,0.,0.,0.00021518,0.
 00029614,-0.00022737,-0.00058842,-0.00038966,0.00012546,-0.00076495,0.
 00009353,0.00010192,-0.00037113,0.,0.,0.00054585,-0.13198903,0.0000003
 3,0.00000018,-0.02742980,0.00239617,0.00254358,-0.02742985,0.00100485,
 -0.00334676,-0.02742990,-0.00340070,0.00080331,-0.01084680,0.,0.,0.225
 12533,0.00000027,-0.02578656,0.,0.01330464,0.00173688,-0.00108030,0.00
 557917,0.00257558,0.00059605,-0.01888355,0.00070459,0.00048423,0.00000
 004,0.00096350,0.,-0.00000054,0.01980596,0.00000017,0.,-0.02578653,0.0
 1412361,-0.00108031,0.00160774,-0.01858381,0.00059610,0.00076914,0.004
 46034,0.00048420,0.00264016,0.,0.,0.00096349,-0.00000031,0.,0.01980594
 \\0.00061998,-0.00000017,-0.00000010,-0.00005216,-0.00004691,-0.000049
 78,-0.00005208,-0.00001973,0.00006566,-0.00005204,0.00006681,-0.000015
 78,-0.00016577,0.,0.,-0.00029793,-0.00000001,0.\\\@


 IF YOU DON'T HAVE THE LAW - ARGUE THE FACTS.
 IF YOU DON'T HAVE THE FACTS - ARGUE THE LAW.
 IF YOU DON'T HAVE EITHER - POUND THE TABLE.
 Job cpu time:       0 days  0 hours  0 minutes  0.9 seconds.
 File lengths (MBytes):  RWF=      5 Int=      0 D2E=      0 Chk=      2 Scr=      1
 Normal termination of Gaussian 09 at Fri Mar  3 14:33:35 2017.
