 Entering Gaussian System, Link 0=g09
 Input=MeCl_scan.gjf
 Output=MeCl_scan.out
 Initial command:
 /n/sw/g09_D.01/g09/l1.exe "/scratch/ekwan_MeCl_scan/Gau-9181.inp" -scrdir="/scratch/ekwan_MeCl_scan/"
 Entering Link 1 = /n/sw/g09_D.01/g09/l1.exe PID=      9182.
  
 Copyright (c) 1988,1990,1992,1993,1995,1998,2003,2009,2013,
            Gaussian, Inc.  All Rights Reserved.
  
 This is part of the Gaussian(R) 09 program.  It is based on
 the Gaussian(R) 03 system (copyright 2003, Gaussian, Inc.),
 the Gaussian(R) 98 system (copyright 1998, Gaussian, Inc.),
 the Gaussian(R) 94 system (copyright 1995, Gaussian, Inc.),
 the Gaussian 92(TM) system (copyright 1992, Gaussian, Inc.),
 the Gaussian 90(TM) system (copyright 1990, Gaussian, Inc.),
 the Gaussian 88(TM) system (copyright 1988, Gaussian, Inc.),
 the Gaussian 86(TM) system (copyright 1986, Carnegie Mellon
 University), and the Gaussian 82(TM) system (copyright 1983,
 Carnegie Mellon University). Gaussian is a federally registered
 trademark of Gaussian, Inc.
  
 This software contains proprietary and confidential information,
 including trade secrets, belonging to Gaussian, Inc.
  
 This software is provided under written license and may be
 used, copied, transmitted, or stored only in accord with that
 written license.
  
 The following legend is applicable only to US Government
 contracts under FAR:
  
                    RESTRICTED RIGHTS LEGEND
  
 Use, reproduction and disclosure by the US Government is
 subject to restrictions as set forth in subparagraphs (a)
 and (c) of the Commercial Computer Software - Restricted
 Rights clause in FAR 52.227-19.
  
 Gaussian, Inc.
 340 Quinnipiac St., Bldg. 40, Wallingford CT 06492
  
  
 ---------------------------------------------------------------
 Warning -- This program may not be used in any manner that
 competes with the business of Gaussian, Inc. or will provide
 assistance to any competitor of Gaussian, Inc.  The licensee
 of this program is prohibited from giving any competitor of
 Gaussian, Inc. access to this program.  By using this program,
 the user acknowledges that Gaussian, Inc. is engaged in the
 business of creating and licensing software in the field of
 computational chemistry and represents and warrants to the
 licensee that it is not a competitor of Gaussian, Inc. and that
 it will not use this program in any manner prohibited above.
 ---------------------------------------------------------------
  

 Cite this work as:
 Gaussian 09, Revision D.01,
 M. J. Frisch, G. W. Trucks, H. B. Schlegel, G. E. Scuseria, 
 M. A. Robb, J. R. Cheeseman, G. Scalmani, V. Barone, B. Mennucci, 
 G. A. Petersson, H. Nakatsuji, M. Caricato, X. Li, H. P. Hratchian, 
 A. F. Izmaylov, J. Bloino, G. Zheng, J. L. Sonnenberg, M. Hada, 
 M. Ehara, K. Toyota, R. Fukuda, J. Hasegawa, M. Ishida, T. Nakajima, 
 Y. Honda, O. Kitao, H. Nakai, T. Vreven, J. A. Montgomery, Jr., 
 J. E. Peralta, F. Ogliaro, M. Bearpark, J. J. Heyd, E. Brothers, 
 K. N. Kudin, V. N. Staroverov, T. Keith, R. Kobayashi, J. Normand, 
 K. Raghavachari, A. Rendell, J. C. Burant, S. S. Iyengar, J. Tomasi, 
 M. Cossi, N. Rega, J. M. Millam, M. Klene, J. E. Knox, J. B. Cross, 
 V. Bakken, C. Adamo, J. Jaramillo, R. Gomperts, R. E. Stratmann, 
 O. Yazyev, A. J. Austin, R. Cammi, C. Pomelli, J. W. Ochterski, 
 R. L. Martin, K. Morokuma, V. G. Zakrzewski, G. A. Voth, 
 P. Salvador, J. J. Dannenberg, S. Dapprich, A. D. Daniels, 
 O. Farkas, J. B. Foresman, J. V. Ortiz, J. Cioslowski, 
 and D. J. Fox, Gaussian, Inc., Wallingford CT, 2013.
 
 ******************************************
 Gaussian 09:  EM64L-G09RevD.01 24-Apr-2013
                16-Mar-2017 
 ******************************************
 %mem=1GB
 -----------------------
 #p am1 opt=modredundant
 -----------------------
 1/14=-1,18=120,19=15,26=1,38=1/1,3;
 2/9=110,12=2,17=6,18=5,40=1/2;
 3/5=2,16=1,25=1,41=700000,71=1/1,2,3;
 4/35=1/1;
 5/5=2,35=1,38=5/2;
 6/7=2,8=2,9=2,10=2,28=1/1;
 7//1,2,3,16;
 1/14=-1,18=20,19=15,26=1/3(2);
 2/9=110/2;
 99//99;
 2/9=110/2;
 3/5=2,16=1,25=1,41=700000,71=1,135=20/1,2,3;
 4/5=5,16=3,35=1/1;
 5/5=2,35=1,38=5/2;
 7//1,2,3,16;
 1/14=-1,18=20,19=15,26=1/3(-5);
 2/9=110/2;
 6/7=2,8=2,9=2,10=2,19=2,28=1/1;
 99/9=1/99;
 Leave Link    1 at Thu Mar 16 12:16:16 2017, MaxMem=   134217728 cpu:         0.0
 (Enter /n/sw/g09_D.01/g09/l101.exe)
 ---------
 MeCl scan
 ---------
 Symbolic Z-matrix:
 Charge = -1 Multiplicity = 1
 C                    -0.09595  -0.17418   0.40262 
 H                     0.96362   0.15329   0.42484 
 H                    -0.78058   0.68298   0.2383 
 H                    -0.2571   -0.97071  -0.35236 
 Cl                    0.65193   1.18342  -2.73546 
 Cl                   -0.47767  -0.86709   2.00426 
 
 Add virtual bond connecting atoms Cl5        and H2         Dist= 6.31D+00.
 Add virtual bond connecting atoms Cl5        and H3         Dist= 6.31D+00.
 Add virtual bond connecting atoms Cl5        and H4         Dist= 6.31D+00.
 The following ModRedundant input section has been read:
 B       1       5 S  40 -0.050                                                
 
 NAtoms=      6 NQM=        6 NQMF=       0 NMMI=      0 NMMIF=      0
                NMic=       0 NMicF=      0.
                    Isotopes and Nuclear Properties:
 (Nuclear quadrupole moments (NQMom) in fm**2, nuclear magnetic moments (NMagM)
  in nuclear magnetons)

  Atom         1           2           3           4           5           6
 IAtWgt=          12           1           1           1          35          35
 AtmWgt=  12.0000000   1.0078250   1.0078250   1.0078250  34.9688527  34.9688527
 NucSpn=           0           1           1           1           3           3
 AtZEff=   0.0000000   0.0000000   0.0000000   0.0000000   0.0000000   0.0000000
 NQMom=    0.0000000   0.0000000   0.0000000   0.0000000  -8.1650000  -8.1650000
 NMagM=    0.0000000   2.7928460   2.7928460   2.7928460   0.8218740   0.8218740
 AtZNuc=   6.0000000   1.0000000   1.0000000   1.0000000  17.0000000  17.0000000
 Leave Link  101 at Thu Mar 16 12:16:16 2017, MaxMem=   134217728 cpu:         0.1
 (Enter /n/sw/g09_D.01/g09/l103.exe)

 GradGradGradGradGradGradGradGradGradGradGradGradGradGradGradGradGradGrad
 Berny optimization.
 Initialization pass.
                           ----------------------------
                           !    Initial Parameters    !
                           ! (Angstroms and Degrees)  !
 --------------------------                            --------------------------
 ! Name  Definition              Value          Derivative Info.                !
 --------------------------------------------------------------------------------
 ! R1    R(1,2)                  1.1092         estimate D2E/DX2                !
 ! R2    R(1,3)                  1.1092         estimate D2E/DX2                !
 ! R3    R(1,4)                  1.1092         estimate D2E/DX2                !
 ! R4    R(1,5)                  3.5            Scan                            !
 ! R5    R(1,6)                  1.7864         estimate D2E/DX2                !
 ! R6    R(2,5)                  3.3385         estimate D2E/DX2                !
 ! R7    R(3,5)                  3.3385         estimate D2E/DX2                !
 ! R8    R(4,5)                  3.3385         estimate D2E/DX2                !
 ! A1    A(2,1,3)              111.3705         estimate D2E/DX2                !
 ! A2    A(2,1,4)              111.3705         estimate D2E/DX2                !
 ! A3    A(2,1,6)              107.4977         estimate D2E/DX2                !
 ! A4    A(3,1,4)              111.3705         estimate D2E/DX2                !
 ! A5    A(3,1,6)              107.4978         estimate D2E/DX2                !
 ! A6    A(4,1,6)              107.4978         estimate D2E/DX2                !
 ! A7    A(1,2,5)               89.0231         estimate D2E/DX2                !
 ! A8    A(1,3,5)               89.0233         estimate D2E/DX2                !
 ! A9    A(1,4,5)               89.0235         estimate D2E/DX2                !
 ! A10   A(2,5,3)               31.8558         estimate D2E/DX2                !
 ! A11   A(2,5,4)               31.8558         estimate D2E/DX2                !
 ! A12   A(3,5,4)               31.8559         estimate D2E/DX2                !
 ! D1    D(3,1,2,5)            -62.4908         estimate D2E/DX2                !
 ! D2    D(4,1,2,5)             62.4906         estimate D2E/DX2                !
 ! D3    D(6,1,2,5)            179.9999         estimate D2E/DX2                !
 ! D4    D(2,1,3,5)             62.4909         estimate D2E/DX2                !
 ! D5    D(4,1,3,5)            -62.4905         estimate D2E/DX2                !
 ! D6    D(6,1,3,5)           -179.9998         estimate D2E/DX2                !
 ! D7    D(2,1,4,5)            -62.4909         estimate D2E/DX2                !
 ! D8    D(3,1,4,5)             62.4905         estimate D2E/DX2                !
 ! D9    D(6,1,4,5)            179.9999         estimate D2E/DX2                !
 ! D10   D(1,2,5,3)             31.3298         estimate D2E/DX2                !
 ! D11   D(1,2,5,4)            -31.3298         estimate D2E/DX2                !
 ! D12   D(1,3,5,2)            -31.3298         estimate D2E/DX2                !
 ! D13   D(1,3,5,4)             31.3297         estimate D2E/DX2                !
 ! D14   D(1,4,5,2)             31.3298         estimate D2E/DX2                !
 ! D15   D(1,4,5,3)            -31.3297         estimate D2E/DX2                !
 --------------------------------------------------------------------------------
 Trust Radius=3.00D-01 FncErr=1.00D-07 GrdErr=1.00D-07
 Number of optimizations in scan=  41
 Number of steps in this run=     45 maximum allowed number of steps=    100.
 GradGradGradGradGradGradGradGradGradGradGradGradGradGradGradGradGradGrad

 Leave Link  103 at Thu Mar 16 12:16:16 2017, MaxMem=   134217728 cpu:         0.0
 (Enter /n/sw/g09_D.01/g09/l202.exe)
                          Input orientation:                          
 ---------------------------------------------------------------------
 Center     Atomic      Atomic             Coordinates (Angstroms)
 Number     Number       Type             X           Y           Z
 ---------------------------------------------------------------------
      1          6           0       -0.095953   -0.174181    0.402622
      2          1           0        0.963622    0.153290    0.424840
      3          1           0       -0.780577    0.682978    0.238303
      4          1           0       -0.257103   -0.970711   -0.352364
      5         17           0        0.651931    1.183422   -2.735464
      6         17           0       -0.477668   -0.867087    2.004258
 ---------------------------------------------------------------------
                    Distance matrix (angstroms):
                    1          2          3          4          5
     1  C    0.000000
     2  H    1.109248   0.000000
     3  H    1.109249   1.832374   0.000000
     4  H    1.109249   1.832374   1.832375   0.000000
     5  Cl   3.500000   3.338539   3.338535   3.338532   0.000000
     6  Cl   1.786355   2.369187   2.369188   2.369188   5.286355
                    6
     6  Cl   0.000000
 This structure is nearly, but not quite of a higher symmetry.
 Consider Symm=Loose if the higher symmetry is desired.
 Stoichiometry    CH3Cl2(1-)
 Framework group  C1[X(CH3Cl2)]
 Deg. of freedom    12
 Full point group                 C1      NOp   1
 Largest Abelian subgroup         C1      NOp   1
 Largest concise Abelian subgroup C1      NOp   1
                         Standard orientation:                         
 ---------------------------------------------------------------------
 Center     Atomic      Atomic             Coordinates (Angstroms)
 Number     Number       Type             X           Y           Z
 ---------------------------------------------------------------------
      1          6           0        0.296598   -0.586590   -0.242901
      2          1           0       -0.793204   -0.774739   -0.157097
      3          1           0        0.511072    0.221945   -0.971395
      4          1           0        0.748434   -0.369438    0.746605
      5         17           0       -1.184802    2.343192    0.970288
      6         17           0        1.052691   -2.081912   -0.862094
 ---------------------------------------------------------------------
 Rotational constants (GHZ):    149.3494267      1.0142373      1.0142373
 Leave Link  202 at Thu Mar 16 12:16:16 2017, MaxMem=   134217728 cpu:         0.0
 (Enter /n/sw/g09_D.01/g09/l301.exe)
 Standard basis: VSTO-6G (5D, 7F)
 Ernie: Thresh=  0.10000D-02 Tol=  0.10000D-05 Strict=F.
  NNHCO=     0 NNPyr=     0 NCTC=     0               EPep=         0.000000000
    EC=        28.184055450  ECS=         0.492065223   EG=         0.105971324
   EHC=         0.000000000  EAt=       -33.052414446  AtH=         0.613817032
 EPDDG=         0.000000000  ECC=        28.782091997 EAtT=        33.666231478
 There are    15 symmetry adapted cartesian basis functions of A   symmetry.
 There are    15 symmetry adapted basis functions of A   symmetry.
    15 basis functions,    90 primitive gaussians,    15 cartesian basis functions
    11 alpha electrons       11 beta electrons
       nuclear repulsion energy        62.4483234751 Hartrees.
 IExCor=    0 DFT=F Ex=HF Corr=None ExCW=0 ScaHFX=  1.000000
 ScaDFX=  1.000000  1.000000  1.000000  1.000000 ScalE2=  1.000000  1.000000
 IRadAn=      0 IRanWt=     -1 IRanGd=            0 ICorTp=0 IEmpDi=  4
 Integral buffers will be    131072 words long.
 Regular integral format.
 Two-electron integral symmetry is turned off.
 Leave Link  301 at Thu Mar 16 12:16:16 2017, MaxMem=   134217728 cpu:         0.0
 (Enter /n/sw/g09_D.01/g09/l302.exe)
 Do NDO integrals.
 NPDir=0 NMtPBC=     1 NCelOv=     1 NCel=       1 NClECP=     1 NCelD=      1
         NCelK=      1 NCelE2=     1 NClLst=     1 CellRange=     0.0.
 One-electron integrals computed using PRISM.
 NBasis=    15 RedAO= F EigKep=  0.00D+00  NBF=    15
 NBsUse=    15 1.00D-04 EigRej=  0.00D+00 NBFU=    15
 Leave Link  302 at Thu Mar 16 12:16:16 2017, MaxMem=   134217728 cpu:         0.1
 (Enter /n/sw/g09_D.01/g09/l303.exe)
 DipDrv:  MaxL=1.
 Leave Link  303 at Thu Mar 16 12:16:16 2017, MaxMem=   134217728 cpu:         0.0
 (Enter /n/sw/g09_D.01/g09/l401.exe)
 Simple Huckel Guess.
 JPrj=0 DoOrth=F DoCkMO=F.
 Leave Link  401 at Thu Mar 16 12:16:16 2017, MaxMem=   134217728 cpu:         0.0
 (Enter /n/sw/g09_D.01/g09/l502.exe)
 Closed shell SCF:
 Using DIIS extrapolation, IDIIS=  1040.
 Overlap will be assumed to be unity.
 Two-electron integral symmetry not used.
 Keep J ints in memory in canonical form, NReq=884770.
 IVT=       79028 IEndB=       79028 NGot=   134217728 MDV=   134138140
 LenX=   134138140 LenY=   134137258
 Requested convergence on RMS density matrix=1.00D-08 within 128 cycles.
 Requested convergence on MAX density matrix=1.00D-06.
 Requested convergence on             energy=1.00D-06.
 No special actions if energy rises.
 FoFCou: FMM=F IPFlag=           0 FMFlag=           0 FMFlg1=           0
         NFxFlg=           0 DoJE=F BraDBF=F KetDBF=F FulRan=T
         wScrn=  0.000000 ICntrl=     600 IOpCl=  2 I1Cent=           0 NGrid=           0
         NMat0=    1 NMatS0=     33 NMatT0=    0 NMatD0=    1 NMtDS0=    0 NMtDT0=    0
 Symmetry not used in FoFCou.

 Cycle   1  Pass 1  IDiag  1:
 E= 0.127572913720961    
 DIIS: error= 9.25D-02 at cycle   1 NSaved=   1.
 NSaved= 1 IEnMin= 1 EnMin= 0.127572913720961     IErMin= 1 ErrMin= 9.25D-02
 ErrMax= 9.25D-02  0.00D+00 EMaxC= 1.00D-01 BMatC= 1.06D-01 BMatP= 1.06D-01
 IDIUse=3 WtCom= 7.50D-02 WtEn= 9.25D-01
 Coeff-Com:  0.100D+01
 Coeff-En:   0.100D+01
 Coeff:      0.100D+01
 GapD=    2.000 DampG=2.000 DampE=0.500 DampFc=1.0000 IDamp=-1.
 RMSDP=2.53D-02 MaxDP=1.34D-01              OVMax= 0.00D+00

 Cycle   2  Pass 1  IDiag  1:
 E=-0.902256908253705E-01 Delta-E=       -0.217798604546 Rises=F Damp=F
 DIIS: error= 1.84D-02 at cycle   2 NSaved=   2.
 NSaved= 2 IEnMin= 2 EnMin=-0.902256908253705E-01 IErMin= 2 ErrMin= 1.84D-02
 ErrMax= 1.84D-02  0.00D+00 EMaxC= 1.00D-01 BMatC= 5.10D-03 BMatP= 1.06D-01
 IDIUse=3 WtCom= 8.16D-01 WtEn= 1.84D-01
 Coeff-Com: -0.274D+00 0.127D+01
 Coeff-En:   0.000D+00 0.100D+01
 Coeff:     -0.224D+00 0.122D+01
 RMSDP=6.56D-03 MaxDP=3.98D-02 DE=-2.18D-01 OVMax= 0.00D+00

 Cycle   3  Pass 1  IDiag  3:
 E=-0.100407846159691     Delta-E=       -0.010182155334 Rises=F Damp=F
 DIIS: error= 7.02D-04 at cycle   3 NSaved=   3.
 NSaved= 3 IEnMin= 3 EnMin=-0.100407846159691     IErMin= 3 ErrMin= 7.02D-04
 ErrMax= 7.02D-04  0.00D+00 EMaxC= 1.00D-01 BMatC= 1.24D-05 BMatP= 5.10D-03
 IDIUse=3 WtCom= 9.93D-01 WtEn= 7.02D-03
 Coeff-Com:  0.242D-01-0.143D+00 0.112D+01
 Coeff-En:   0.000D+00 0.000D+00 0.100D+01
 Coeff:      0.240D-01-0.142D+00 0.112D+01
 Gap=     0.294 Goal=   None    Shift=    0.000
 RMSDP=4.46D-04 MaxDP=2.25D-03 DE=-1.02D-02 OVMax= 3.08D-03

 Cycle   4  Pass 1  IDiag  3:
 E=-0.100447708561660     Delta-E=       -0.000039862402 Rises=F Damp=F
 DIIS: error= 1.40D-04 at cycle   4 NSaved=   4.
 NSaved= 4 IEnMin= 4 EnMin=-0.100447708561660     IErMin= 4 ErrMin= 1.40D-04
 ErrMax= 1.40D-04  0.00D+00 EMaxC= 1.00D-01 BMatC= 7.93D-07 BMatP= 1.24D-05
 IDIUse=3 WtCom= 9.99D-01 WtEn= 1.40D-03
 Coeff-Com: -0.596D-02 0.369D-01-0.488D+00 0.146D+01
 Coeff-En:   0.000D+00 0.000D+00 0.000D+00 0.100D+01
 Coeff:     -0.595D-02 0.369D-01-0.487D+00 0.146D+01
 Gap=     0.295 Goal=   None    Shift=    0.000
 RMSDP=1.87D-04 MaxDP=7.23D-04 DE=-3.99D-05 OVMax= 1.32D-03

 Cycle   5  Pass 1  IDiag  3:
 E=-0.100451430405272     Delta-E=       -0.000003721844 Rises=F Damp=F
 DIIS: error= 1.95D-05 at cycle   5 NSaved=   5.
 NSaved= 5 IEnMin= 5 EnMin=-0.100451430405272     IErMin= 5 ErrMin= 1.95D-05
 ErrMax= 1.95D-05  0.00D+00 EMaxC= 1.00D-01 BMatC= 1.07D-08 BMatP= 7.93D-07
 IDIUse=1 WtCom= 1.00D+00 WtEn= 0.00D+00
 Coeff-Com:  0.412D-03-0.338D-02 0.109D+00-0.429D+00 0.132D+01
 Coeff:      0.412D-03-0.338D-02 0.109D+00-0.429D+00 0.132D+01
 Gap=     0.295 Goal=   None    Shift=    0.000
 RMSDP=2.31D-05 MaxDP=1.04D-04 DE=-3.72D-06 OVMax= 1.58D-04

 Cycle   6  Pass 1  IDiag  3:
 E=-0.100451484608392     Delta-E=       -0.000000054203 Rises=F Damp=F
 DIIS: error= 5.04D-06 at cycle   6 NSaved=   6.
 NSaved= 6 IEnMin= 6 EnMin=-0.100451484608392     IErMin= 6 ErrMin= 5.04D-06
 ErrMax= 5.04D-06  0.00D+00 EMaxC= 1.00D-01 BMatC= 4.29D-10 BMatP= 1.07D-08
 IDIUse=1 WtCom= 1.00D+00 WtEn= 0.00D+00
 Coeff-Com:  0.582D-04 0.537D-04-0.344D-01 0.156D+00-0.640D+00 0.152D+01
 Coeff:      0.582D-04 0.537D-04-0.344D-01 0.156D+00-0.640D+00 0.152D+01
 Gap=     0.295 Goal=   None    Shift=    0.000
 RMSDP=4.61D-06 MaxDP=2.84D-05 DE=-5.42D-08 OVMax= 3.15D-05

 Cycle   7  Pass 1  IDiag  3:
 E=-0.100451486756846     Delta-E=       -0.000000002148 Rises=F Damp=F
 DIIS: error= 5.41D-07 at cycle   7 NSaved=   7.
 NSaved= 7 IEnMin= 7 EnMin=-0.100451486756846     IErMin= 7 ErrMin= 5.41D-07
 ErrMax= 5.41D-07  0.00D+00 EMaxC= 1.00D-01 BMatC= 9.25D-12 BMatP= 4.29D-10
 IDIUse=1 WtCom= 1.00D+00 WtEn= 0.00D+00
 Coeff-Com:  0.124D-04-0.236D-03 0.170D-01-0.739D-01 0.293D+00-0.736D+00
 Coeff-Com:  0.150D+01
 Coeff:      0.124D-04-0.236D-03 0.170D-01-0.739D-01 0.293D+00-0.736D+00
 Coeff:      0.150D+01
 Gap=     0.295 Goal=   None    Shift=    0.000
 RMSDP=7.36D-07 MaxDP=3.56D-06 DE=-2.15D-09 OVMax= 3.67D-06

 Cycle   8  Pass 1  IDiag  3:
 E=-0.100451486807984     Delta-E=       -0.000000000051 Rises=F Damp=F
 DIIS: error= 8.85D-08 at cycle   8 NSaved=   8.
 NSaved= 8 IEnMin= 8 EnMin=-0.100451486807984     IErMin= 8 ErrMin= 8.85D-08
 ErrMax= 8.85D-08  0.00D+00 EMaxC= 1.00D-01 BMatC= 2.14D-13 BMatP= 9.25D-12
 IDIUse=1 WtCom= 1.00D+00 WtEn= 0.00D+00
 Coeff-Com: -0.360D-05 0.979D-04-0.777D-02 0.340D-01-0.136D+00 0.343D+00
 Coeff-Com: -0.777D+00 0.154D+01
 Coeff:     -0.360D-05 0.979D-04-0.777D-02 0.340D-01-0.136D+00 0.343D+00
 Coeff:     -0.777D+00 0.154D+01
 Gap=     0.295 Goal=   None    Shift=    0.000
 RMSDP=1.34D-07 MaxDP=4.93D-07 DE=-5.11D-11 OVMax= 8.28D-07

 Cycle   9  Pass 1  IDiag  3:
 E=-0.100451486809241     Delta-E=       -0.000000000001 Rises=F Damp=F
 DIIS: error= 2.29D-09 at cycle   9 NSaved=   9.
 NSaved= 9 IEnMin= 9 EnMin=-0.100451486809241     IErMin= 9 ErrMin= 2.29D-09
 ErrMax= 2.29D-09  0.00D+00 EMaxC= 1.00D-01 BMatC= 3.25D-16 BMatP= 2.14D-13
 IDIUse=1 WtCom= 1.00D+00 WtEn= 0.00D+00
 Coeff-Com:  0.454D-06-0.107D-04 0.813D-03-0.355D-02 0.142D-01-0.360D-01
 Coeff-Com:  0.836D-01-0.183D+00 0.112D+01
 Coeff:      0.454D-06-0.107D-04 0.813D-03-0.355D-02 0.142D-01-0.360D-01
 Coeff:      0.836D-01-0.183D+00 0.112D+01
 Gap=     0.295 Goal=   None    Shift=    0.000
 RMSDP=3.74D-09 MaxDP=1.60D-08 DE=-1.26D-12 OVMax= 1.91D-08

 Cycle  10  Pass 2  IDiag  1:
 SCF Done:  E(RAM1) = -0.100451486809     A.U. after   10 cycles
            NFock=  9  Conv=0.37D-08     -V/T= 0.9921
 KE=-1.275846088131D+01 PE=-1.017101137550D+02 EE= 5.191979967443D+01
 Leave Link  502 at Thu Mar 16 12:16:16 2017, MaxMem=   134217728 cpu:         0.0
 (Enter /n/sw/g09_D.01/g09/l601.exe)
 Copying SCF densities to generalized density rwf, IOpCl= 0 IROHF=0.

 **********************************************************************

            Population analysis using the SCF density.

 **********************************************************************

 Orbital symmetries:
       Occupied  (A) (A) (A) (A) (A) (A) (A) (A) (A) (A) (A)
       Virtual   (A) (A) (A) (A)
 The electronic state is 1-A.
 Alpha  occ. eigenvalues --   -1.24166  -0.92934  -0.92261  -0.42209  -0.42209
 Alpha  occ. eigenvalues --   -0.41193  -0.30229  -0.30229  -0.12043  -0.11987
 Alpha  occ. eigenvalues --   -0.11987
 Alpha virt. eigenvalues --    0.17466   0.28214   0.28214   0.29791
          Condensed to atoms (all electrons):
               1          2          3          4          5          6
     1  C    4.121477   0.000000   0.000000   0.000000   0.000000   0.000000
     2  H    0.000000   0.884024   0.000000   0.000000   0.000000   0.000000
     3  H    0.000000   0.000000   0.884024   0.000000   0.000000   0.000000
     4  H    0.000000   0.000000   0.000000   0.884023   0.000000   0.000000
     5  Cl   0.000000   0.000000   0.000000   0.000000   7.997662   0.000000
     6  Cl   0.000000   0.000000   0.000000   0.000000   0.000000   7.228789
 Mulliken charges:
               1
     1  C   -0.121477
     2  H    0.115976
     3  H    0.115976
     4  H    0.115977
     5  Cl  -0.997662
     6  Cl  -0.228789
 Sum of Mulliken charges =  -1.00000
 Mulliken charges with hydrogens summed into heavy atoms:
               1
     1  C    0.226452
     5  Cl  -0.997662
     6  Cl  -0.228789
 Charge=             -1.0000 electrons
 Dipole moment (field-independent basis, Debye):
    X=              4.6167    Y=             -9.1305    Z=             -3.7808  Tot=             10.9075
 N-N= 6.244832347506D+01 E-N=-1.017101137703D+02  KE=-1.275846088131D+01
 Leave Link  601 at Thu Mar 16 12:16:17 2017, MaxMem=   134217728 cpu:         0.0
 (Enter /n/sw/g09_D.01/g09/l701.exe)
 Compute integral first derivatives.
 ... and contract with generalized density number  0.
 Leave Link  701 at Thu Mar 16 12:16:17 2017, MaxMem=   134217728 cpu:         0.1
 (Enter /n/sw/g09_D.01/g09/l702.exe)
 L702 exits ... SP integral derivatives will be done elsewhere.
 Leave Link  702 at Thu Mar 16 12:16:17 2017, MaxMem=   134217728 cpu:         0.0
 (Enter /n/sw/g09_D.01/g09/l703.exe)
 Compute integral first derivatives, UseDBF=F ICtDFT=           0.
 Integral derivatives from FoFJK, PRISM(SPDF).
 Calling FoFJK, ICntrl=      2127 FMM=F ISym2X=0 I1Cent= 0 IOpClX= 0 NMat=1 NMatS=1 NMatT=0.
 FoFJK:  IHMeth= 8 ICntrl=    2127 DoSepK=F KAlg= 0 I1Cent=   0 FoldK=F
 IRaf=         0 NMat=   1 IRICut=       1 DoRegI=T DoRafI=F ISym2E= 0.
 FoFCou: FMM=F IPFlag=           0 FMFlag=      100000 FMFlg1=         800
         NFxFlg=           0 DoJE=F BraDBF=F KetDBF=F FulRan=T
         wScrn=  0.000000 ICntrl=    2127 IOpCl=  0 I1Cent=           0 NGrid=           0
         NMat0=    1 NMatS0=      1 NMatT0=    0 NMatD0=    1 NMtDS0=    0 NMtDT0=    0
 Symmetry not used in FoFCou.
 Leave Link  703 at Thu Mar 16 12:16:17 2017, MaxMem=   134217728 cpu:         0.0
 (Enter /n/sw/g09_D.01/g09/l716.exe)
 Dipole        = 1.81634195D+00-3.59219657D+00-1.48748616D+00
 ***** Axes restored to original set *****
 -------------------------------------------------------------------
 Center     Atomic                   Forces (Hartrees/Bohr)
 Number     Number              X              Y              Z
 -------------------------------------------------------------------
      1        6          -0.001466215   -0.002660999    0.006149787
      2        1          -0.000026314    0.000208817   -0.000607785
      3        1           0.000254428    0.000123097   -0.000577745
      4        1           0.000169943    0.000390079   -0.000482282
      5       17          -0.000625236   -0.001134963    0.002623452
      6       17           0.001693394    0.003073969   -0.007105427
 -------------------------------------------------------------------
 Cartesian Forces:  Max     0.007105427 RMS     0.002578297
 Leave Link  716 at Thu Mar 16 12:16:17 2017, MaxMem=   134217728 cpu:         0.0
 (Enter /n/sw/g09_D.01/g09/l103.exe)

 GradGradGradGradGradGradGradGradGradGradGradGradGradGradGradGradGradGrad
 Berny optimization.
 FormGI is forming the generalized inverse of G from B-inverse, IUseBI=4.
 Internal  Forces:  Max     0.007924895 RMS     0.001363946
 Search for a local minimum.
 Step number   1 out of a maximum of   45 on scan point     1 out of    41
 All quantities printed in internal units (Hartrees-Bohrs-Radians)
 RMS Force = .13647D-02 SwitMx=.10000D-02 MixMth= 1
 Mixed Optimization -- RFO/linear search
 Second derivative matrix not updated -- first step.
 ITU=  0
     Eigenvalues ---    0.03075   0.03075   0.05568   0.07376   0.07376
     Eigenvalues ---    0.09502   0.09502   0.27222   0.28776   0.28777
     Eigenvalues ---    0.313661000.000001000.000001000.000001000.00000
     Eigenvalues --- 1000.000001000.000001000.000001000.000001000.00000
     Eigenvalues --- 1000.000001000.000001000.000001000.000001000.00000
     Eigenvalues --- 1000.000001000.000001000.000001000.000001000.00000
     Eigenvalues --- 1000.000001000.000001000.000001000.000001000.00000
 RFO step:  Lambda=-2.39752725D-04 EMin= 3.07521192D-02
 Linear search not attempted -- first point.
 Iteration  1 RMS(Cart)=  0.00416056 RMS(Int)=  0.00000342
 Iteration  2 RMS(Cart)=  0.00000162 RMS(Int)=  0.00000285
 Iteration  3 RMS(Cart)=  0.00000000 RMS(Int)=  0.00000285
 Iteration  1 RMS(Cart)=  0.00000011 RMS(Int)=  0.00000028
 ITry= 1 IFail=0 DXMaxC= 1.96D-02 DCOld= 1.00D+10 DXMaxT= 3.00D-01 DXLimC= 3.00D+00 Rises=F
 Variable       Old X    -DE/DX   Delta X   Delta X   Delta X     New X
                                 (Linear)    (Quad)   (Total)
    R1        2.09617   0.00001   0.00000   0.00033   0.00033   2.09651
    R2        2.09618   0.00001   0.00000   0.00033   0.00033   2.09651
    R3        2.09618   0.00001   0.00000   0.00033   0.00033   2.09651
    R4        6.61404  -0.00082   0.00000   0.00000   0.00000   6.61404
    R5        3.37572  -0.00792   0.00000  -0.02909  -0.02909   3.34663
    R6        6.30892  -0.00073   0.00000  -0.00478  -0.00478   6.30415
    R7        6.30892  -0.00073   0.00000  -0.00478  -0.00478   6.30414
    R8        6.30891  -0.00073   0.00000  -0.00478  -0.00478   6.30413
    A1        1.94378   0.00002   0.00000  -0.00211  -0.00211   1.94167
    A2        1.94378   0.00002   0.00000  -0.00211  -0.00211   1.94167
    A3        1.87619  -0.00002   0.00000   0.00228   0.00228   1.87847
    A4        1.94378   0.00002   0.00000  -0.00211  -0.00211   1.94167
    A5        1.87619  -0.00002   0.00000   0.00228   0.00228   1.87847
    A6        1.87619  -0.00002   0.00000   0.00228   0.00228   1.87847
    A7        1.55375  -0.00006   0.00000   0.00222   0.00222   1.55596
    A8        1.55375  -0.00006   0.00000   0.00222   0.00222   1.55597
    A9        1.55375  -0.00006   0.00000   0.00222   0.00222   1.55597
   A10        0.55599   0.00007   0.00000   0.00011   0.00011   0.55610
   A11        0.55599   0.00007   0.00000   0.00011   0.00011   0.55610
   A12        0.55599   0.00007   0.00000   0.00011   0.00011   0.55610
    D1       -1.09067  -0.00003   0.00000   0.00296   0.00296  -1.08771
    D2        1.09067   0.00003   0.00000  -0.00296  -0.00296   1.08771
    D3        3.14159   0.00000   0.00000   0.00000   0.00000   3.14159
    D4        1.09067   0.00003   0.00000  -0.00296  -0.00296   1.08771
    D5       -1.09066  -0.00003   0.00000   0.00296   0.00296  -1.08771
    D6       -3.14159   0.00000   0.00000   0.00000   0.00000  -3.14159
    D7       -1.09067  -0.00003   0.00000   0.00296   0.00296  -1.08771
    D8        1.09067   0.00003   0.00000  -0.00296  -0.00296   1.08771
    D9        3.14159   0.00000   0.00000   0.00000   0.00000   3.14159
   D10        0.54681   0.00001   0.00000   0.00001   0.00001   0.54682
   D11       -0.54681  -0.00001   0.00000  -0.00001  -0.00001  -0.54682
   D12       -0.54681  -0.00001   0.00000  -0.00001  -0.00001  -0.54682
   D13        0.54681   0.00001   0.00000   0.00001   0.00001   0.54682
   D14        0.54681   0.00001   0.00000   0.00001   0.00001   0.54682
   D15       -0.54681  -0.00001   0.00000  -0.00001  -0.00001  -0.54682
         Item               Value     Threshold  Converged?
 Maximum Force            0.007925     0.000450     NO 
 RMS     Force            0.001365     0.000300     NO 
 Maximum Displacement     0.019643     0.001800     NO 
 RMS     Displacement     0.004161     0.001200     NO 
 Predicted change in Energy=-1.199887D-04
 Lowest energy point so far.  Saving SCF results.
 GradGradGradGradGradGradGradGradGradGradGradGradGradGradGradGradGradGrad

 Leave Link  103 at Thu Mar 16 12:16:17 2017, MaxMem=   134217728 cpu:         0.0
 (Enter /n/sw/g09_D.01/g09/l202.exe)
                          Input orientation:                          
 ---------------------------------------------------------------------
 Center     Atomic      Atomic             Coordinates (Angstroms)
 Number     Number       Type             X           Y           Z
 ---------------------------------------------------------------------
      1          6           0       -0.096765   -0.175655    0.406028
      2          1           0        0.962780    0.152662    0.425853
      3          1           0       -0.780435    0.682050    0.239421
      4          1           0       -0.257257   -0.970705   -0.350912
      5         17           0        0.651120    1.181949   -2.732059
      6         17           0       -0.475191   -0.862590    1.993863
 ---------------------------------------------------------------------
                    Distance matrix (angstroms):
                    1          2          3          4          5
     1  C    0.000000
     2  H    1.109423   0.000000
     3  H    1.109423   1.831340   0.000000
     4  H    1.109423   1.831340   1.831340   0.000000
     5  Cl   3.500001   3.336011   3.336007   3.336005   0.000000
     6  Cl   1.770963   2.357361   2.357361   2.357361   5.270963
                    6
     6  Cl   0.000000
 This structure is nearly, but not quite of a higher symmetry.
 Consider Symm=Loose if the higher symmetry is desired.
 Stoichiometry    CH3Cl2(1-)
 Framework group  C1[X(CH3Cl2)]
 Deg. of freedom    12
 Full point group                 C1      NOp   1
 RotChk:  IX=0 Diff= 1.65D+00
 Largest Abelian subgroup         C1      NOp   1
 Largest concise Abelian subgroup C1      NOp   1
                         Standard orientation:                         
 ---------------------------------------------------------------------
 Center     Atomic      Atomic             Coordinates (Angstroms)
 Number     Number       Type             X           Y           Z
 ---------------------------------------------------------------------
      1          6           0        0.623833    0.130634   -0.305999
      2          1           0        0.070667   -0.575455   -0.958888
      3          1           0        0.086610    1.096792   -0.212470
      4          1           0        0.824859   -0.315675    0.689600
      5         17           0       -2.464395   -0.516059    1.208808
      6         17           0        2.186446    0.457855   -1.072469
 ---------------------------------------------------------------------
 Rotational constants (GHZ):    149.5182575      1.0197583      1.0197583
 Leave Link  202 at Thu Mar 16 12:16:17 2017, MaxMem=   134217728 cpu:         0.0
 (Enter /n/sw/g09_D.01/g09/l301.exe)
 Standard basis: VSTO-6G (5D, 7F)
 Ernie: Thresh=  0.10000D-02 Tol=  0.10000D-05 Strict=F.
  NNHCO=     0 NNPyr=     0 NCTC=     0               EPep=         0.000000000
    EC=        28.263381320  ECS=         0.497302528   EG=         0.107725583
   EHC=         0.000000000  EAt=       -33.052414446  AtH=         0.613817032
 EPDDG=         0.000000000  ECC=        28.868409431 EAtT=        33.666231478
 There are    15 symmetry adapted cartesian basis functions of A   symmetry.
 There are    15 symmetry adapted basis functions of A   symmetry.
    15 basis functions,    90 primitive gaussians,    15 cartesian basis functions
    11 alpha electrons       11 beta electrons
       nuclear repulsion energy        62.5346409089 Hartrees.
 IExCor=    0 DFT=F Ex=HF Corr=None ExCW=0 ScaHFX=  1.000000
 ScaDFX=  1.000000  1.000000  1.000000  1.000000 ScalE2=  1.000000  1.000000
 IRadAn=      0 IRanWt=     -1 IRanGd=            0 ICorTp=0 IEmpDi=  4
 Integral buffers will be    131072 words long.
 Regular integral format.
 Two-electron integral symmetry is turned off.
 Leave Link  301 at Thu Mar 16 12:16:17 2017, MaxMem=   134217728 cpu:         0.1
 (Enter /n/sw/g09_D.01/g09/l302.exe)
 Do NDO integrals.
 NPDir=0 NMtPBC=     1 NCelOv=     1 NCel=       1 NClECP=     1 NCelD=      1
         NCelK=      1 NCelE2=     1 NClLst=     1 CellRange=     0.0.
 One-electron integrals computed using PRISM.
 NBasis=    15 RedAO= F EigKep=  0.00D+00  NBF=    15
 NBsUse=    15 1.00D-04 EigRej=  0.00D+00 NBFU=    15
 Leave Link  302 at Thu Mar 16 12:16:17 2017, MaxMem=   134217728 cpu:         0.0
 (Enter /n/sw/g09_D.01/g09/l303.exe)
 DipDrv:  MaxL=1.
 Leave Link  303 at Thu Mar 16 12:16:17 2017, MaxMem=   134217728 cpu:         0.0
 (Enter /n/sw/g09_D.01/g09/l401.exe)
 Initial guess from the checkpoint file:  "/scratch/ekwan_MeCl_scan/Gau-9182.chk"
 B after Tr=     0.000000    0.000000    0.000000
         Rot=    0.812377   -0.402171    0.147313   -0.395727 Ang= -71.34 deg.
 Guess basis will be translated and rotated to current coordinates.
 JPrj=0 DoOrth=T DoCkMO=T.
 Leave Link  401 at Thu Mar 16 12:16:17 2017, MaxMem=   134217728 cpu:         0.1
 (Enter /n/sw/g09_D.01/g09/l502.exe)
 Closed shell SCF:
 Using DIIS extrapolation, IDIIS=  1040.
 Overlap will be assumed to be unity.
 Two-electron integral symmetry not used.
 Keep J ints in memory in canonical form, NReq=884770.
 IVT=       79028 IEndB=       79028 NGot=   134217728 MDV=   134138140
 LenX=   134138140 LenY=   134137258
 Requested convergence on RMS density matrix=1.00D-08 within 128 cycles.
 Requested convergence on MAX density matrix=1.00D-06.
 Requested convergence on             energy=1.00D-06.
 No special actions if energy rises.
 FoFCou: FMM=F IPFlag=           0 FMFlag=           0 FMFlg1=           0
         NFxFlg=           0 DoJE=F BraDBF=F KetDBF=F FulRan=T
         wScrn=  0.000000 ICntrl=     600 IOpCl=  2 I1Cent=           0 NGrid=           0
         NMat0=    1 NMatS0=     33 NMatT0=    0 NMatD0=    1 NMtDS0=    0 NMtDT0=    0
 Symmetry not used in FoFCou.

 Cycle   1  Pass 1  IDiag  1:
 E=-0.100558243083803    
 DIIS: error= 9.12D-04 at cycle   1 NSaved=   1.
 NSaved= 1 IEnMin= 1 EnMin=-0.100558243083803     IErMin= 1 ErrMin= 9.12D-04
 ErrMax= 9.12D-04  0.00D+00 EMaxC= 1.00D-01 BMatC= 1.43D-05 BMatP= 1.43D-05
 IDIUse=3 WtCom= 9.91D-01 WtEn= 9.12D-03
 Coeff-Com:  0.100D+01
 Coeff-En:   0.100D+01
 Coeff:      0.100D+01
 RMSDP=4.00D-04 MaxDP=1.88D-03              OVMax= 0.00D+00

 Cycle   2  Pass 1  IDiag  3:
 E=-0.100596637512425     Delta-E=       -0.000038394429 Rises=F Damp=F
 DIIS: error= 1.89D-04 at cycle   2 NSaved=   2.
 NSaved= 2 IEnMin= 2 EnMin=-0.100596637512425     IErMin= 2 ErrMin= 1.89D-04
 ErrMax= 1.89D-04  0.00D+00 EMaxC= 1.00D-01 BMatC= 1.05D-06 BMatP= 1.43D-05
 IDIUse=3 WtCom= 9.98D-01 WtEn= 1.89D-03
 Coeff-Com: -0.334D+00 0.133D+01
 Coeff-En:   0.000D+00 0.100D+01
 Coeff:     -0.333D+00 0.133D+01
 Gap=     0.297 Goal=   None    Shift=    0.000
 RMSDP=1.70D-04 MaxDP=8.43D-04 DE=-3.84D-05 OVMax= 1.36D-03

 Cycle   3  Pass 1  IDiag  3:
 E=-0.100600512248995     Delta-E=       -0.000003874737 Rises=F Damp=F
 DIIS: error= 2.81D-05 at cycle   3 NSaved=   3.
 NSaved= 3 IEnMin= 3 EnMin=-0.100600512248995     IErMin= 3 ErrMin= 2.81D-05
 ErrMax= 2.81D-05  0.00D+00 EMaxC= 1.00D-01 BMatC= 2.04D-08 BMatP= 1.05D-06
 IDIUse=1 WtCom= 1.00D+00 WtEn= 0.00D+00
 Coeff-Com:  0.143D+00-0.624D+00 0.148D+01
 Coeff:      0.143D+00-0.624D+00 0.148D+01
 Gap=     0.297 Goal=   None    Shift=    0.000
 RMSDP=3.23D-05 MaxDP=1.88D-04 DE=-3.87D-06 OVMax= 2.70D-04

 Cycle   4  Pass 1  IDiag  3:
 E=-0.100600610491235     Delta-E=       -0.000000098242 Rises=F Damp=F
 DIIS: error= 2.17D-06 at cycle   4 NSaved=   4.
 NSaved= 4 IEnMin= 4 EnMin=-0.100600610491235     IErMin= 4 ErrMin= 2.17D-06
 ErrMax= 2.17D-06  0.00D+00 EMaxC= 1.00D-01 BMatC= 1.63D-10 BMatP= 2.04D-08
 IDIUse=1 WtCom= 1.00D+00 WtEn= 0.00D+00
 Coeff-Com: -0.524D-01 0.230D+00-0.572D+00 0.139D+01
 Coeff:     -0.524D-01 0.230D+00-0.572D+00 0.139D+01
 Gap=     0.297 Goal=   None    Shift=    0.000
 RMSDP=2.89D-06 MaxDP=9.64D-06 DE=-9.82D-08 OVMax= 1.24D-05

 Cycle   5  Pass 1  IDiag  3:
 E=-0.100600611304444     Delta-E=       -0.000000000813 Rises=F Damp=F
 DIIS: error= 2.95D-07 at cycle   5 NSaved=   5.
 NSaved= 5 IEnMin= 5 EnMin=-0.100600611304444     IErMin= 5 ErrMin= 2.95D-07
 ErrMax= 2.95D-07  0.00D+00 EMaxC= 1.00D-01 BMatC= 2.58D-12 BMatP= 1.63D-10
 IDIUse=1 WtCom= 1.00D+00 WtEn= 0.00D+00
 Coeff-Com:  0.176D-01-0.775D-01 0.194D+00-0.532D+00 0.140D+01
 Coeff:      0.176D-01-0.775D-01 0.194D+00-0.532D+00 0.140D+01
 Gap=     0.297 Goal=   None    Shift=    0.000
 RMSDP=4.31D-07 MaxDP=1.54D-06 DE=-8.13D-10 OVMax= 2.07D-06

 Cycle   6  Pass 1  IDiag  3:
 E=-0.100600611319443     Delta-E=       -0.000000000015 Rises=F Damp=F
 DIIS: error= 4.88D-08 at cycle   6 NSaved=   6.
 NSaved= 6 IEnMin= 6 EnMin=-0.100600611319443     IErMin= 6 ErrMin= 4.88D-08
 ErrMax= 4.88D-08  0.00D+00 EMaxC= 1.00D-01 BMatC= 5.20D-14 BMatP= 2.58D-12
 IDIUse=1 WtCom= 1.00D+00 WtEn= 0.00D+00
 Coeff-Com: -0.779D-02 0.342D-01-0.858D-01 0.239D+00-0.666D+00 0.149D+01
 Coeff:     -0.779D-02 0.342D-01-0.858D-01 0.239D+00-0.666D+00 0.149D+01
 Gap=     0.297 Goal=   None    Shift=    0.000
 RMSDP=5.55D-08 MaxDP=2.80D-07 DE=-1.50D-11 OVMax= 2.60D-07

 Cycle   7  Pass 1  IDiag  3:
 E=-0.100600611319742     Delta-E=        0.000000000000 Rises=F Damp=F
 DIIS: error= 1.03D-08 at cycle   7 NSaved=   7.
 NSaved= 7 IEnMin= 7 EnMin=-0.100600611319742     IErMin= 7 ErrMin= 1.03D-08
 ErrMax= 1.03D-08  0.00D+00 EMaxC= 1.00D-01 BMatC= 2.15D-15 BMatP= 5.20D-14
 IDIUse=1 WtCom= 1.00D+00 WtEn= 0.00D+00
 Coeff-Com:  0.241D-02-0.106D-01 0.266D-01-0.747D-01 0.209D+00-0.593D+00
 Coeff-Com:  0.144D+01
 Coeff:      0.241D-02-0.106D-01 0.266D-01-0.747D-01 0.209D+00-0.593D+00
 Coeff:      0.144D+01
 Gap=     0.297 Goal=   None    Shift=    0.000
 RMSDP=1.19D-08 MaxDP=6.87D-08 DE=-2.98D-13 OVMax= 5.53D-08

 Cycle   8  Pass 1  IDiag  3:
 E=-0.100600611319798     Delta-E=        0.000000000000 Rises=F Damp=F
 DIIS: error= 1.41D-09 at cycle   8 NSaved=   8.
 NSaved= 8 IEnMin= 8 EnMin=-0.100600611319798     IErMin= 8 ErrMin= 1.41D-09
 ErrMax= 1.41D-09  0.00D+00 EMaxC= 1.00D-01 BMatC= 5.15D-17 BMatP= 2.15D-15
 IDIUse=1 WtCom= 1.00D+00 WtEn= 0.00D+00
 Coeff-Com: -0.148D-03 0.647D-03-0.165D-02 0.480D-02-0.126D-01 0.476D-01
 Coeff-Com: -0.258D+00 0.122D+01
 Coeff:     -0.148D-03 0.647D-03-0.165D-02 0.480D-02-0.126D-01 0.476D-01
 Coeff:     -0.258D+00 0.122D+01
 Gap=     0.297 Goal=   None    Shift=    0.000
 RMSDP=1.70D-09 MaxDP=9.33D-09 DE=-5.68D-14 OVMax= 7.57D-09

 Cycle   9  Pass 2  IDiag  1:
 SCF Done:  E(RAM1) = -0.100600611320     A.U. after    9 cycles
            NFock=  8  Conv=0.17D-08     -V/T= 0.9921
 KE=-1.276622022873D+01 PE=-1.018639439183D+02 EE= 5.199492262680D+01
 Leave Link  502 at Thu Mar 16 12:16:17 2017, MaxMem=   134217728 cpu:         0.0
 (Enter /n/sw/g09_D.01/g09/l701.exe)
 Compute integral first derivatives.
 ... and contract with generalized density number  0.
 Leave Link  701 at Thu Mar 16 12:16:17 2017, MaxMem=   134217728 cpu:         0.0
 (Enter /n/sw/g09_D.01/g09/l702.exe)
 L702 exits ... SP integral derivatives will be done elsewhere.
 Leave Link  702 at Thu Mar 16 12:16:17 2017, MaxMem=   134217728 cpu:         0.0
 (Enter /n/sw/g09_D.01/g09/l703.exe)
 Compute integral first derivatives, UseDBF=F ICtDFT=           0.
 Integral derivatives from FoFJK, PRISM(SPDF).
 Calling FoFJK, ICntrl=      2127 FMM=F ISym2X=0 I1Cent= 0 IOpClX= 0 NMat=1 NMatS=1 NMatT=0.
 FoFJK:  IHMeth= 8 ICntrl=    2127 DoSepK=F KAlg= 0 I1Cent=   0 FoldK=F
 IRaf=         0 NMat=   1 IRICut=       1 DoRegI=T DoRafI=F ISym2E= 0.
 FoFCou: FMM=F IPFlag=           0 FMFlag=      100000 FMFlg1=         800
         NFxFlg=           0 DoJE=F BraDBF=F KetDBF=F FulRan=T
         wScrn=  0.000000 ICntrl=    2127 IOpCl=  0 I1Cent=           0 NGrid=           0
         NMat0=    1 NMatS0=      1 NMatT0=    0 NMatD0=    1 NMtDS0=    0 NMtDT0=    0
 Symmetry not used in FoFCou.
 Leave Link  703 at Thu Mar 16 12:16:17 2017, MaxMem=   134217728 cpu:         0.0
 (Enter /n/sw/g09_D.01/g09/l716.exe)
 Dipole        = 3.80192366D+00 7.96144464D-01-1.86487901D+00
 ***** Axes restored to original set *****
 -------------------------------------------------------------------
 Center     Atomic                   Forces (Hartrees/Bohr)
 Number     Number              X              Y              Z
 -------------------------------------------------------------------
      1        6          -0.000419457   -0.000761473    0.001759993
      2        1           0.000221492    0.000436628   -0.001026059
      3        1           0.000259240    0.000425189   -0.001022052
      4        1           0.000247909    0.000460929   -0.001009275
      5       17          -0.000604767   -0.001097808    0.002537571
      6       17           0.000295583    0.000536536   -0.001240177
 -------------------------------------------------------------------
 Cartesian Forces:  Max     0.002537571 RMS     0.000990355
 Leave Link  716 at Thu Mar 16 12:16:17 2017, MaxMem=   134217728 cpu:         0.0
 (Enter /n/sw/g09_D.01/g09/l103.exe)

 GradGradGradGradGradGradGradGradGradGradGradGradGradGradGradGradGradGrad
 Berny optimization.
 Using GEDIIS/GDIIS optimizer.
 FormGI is forming the generalized inverse of G from B-inverse, IUseBI=4.
 Internal  Forces:  Max     0.001383213 RMS     0.000363573
 Search for a local minimum.
 Step number   2 out of a maximum of   45 on scan point     1 out of    41
 All quantities printed in internal units (Hartrees-Bohrs-Radians)
 RMS Force = .33218D-03 SwitMx=.10000D-02 MixMth= 2
 Mixed Optimization -- En-DIIS/RFO-DIIS
 Update second derivatives using D2CorX and points    1    2
 DE= -1.49D-04 DEPred=-1.20D-04 R= 1.24D+00
 TightC=F SS=  1.41D+00  RLast= 3.18D-02 DXNew= 5.0454D-01 9.5398D-02
 Trust test= 1.24D+00 RLast= 3.18D-02 DXMaxT set to 3.00D-01
 ITU=  1  0
 Use linear search instead of GDIIS.
     Eigenvalues ---    0.03073   0.03073   0.04620   0.07356   0.07356
     Eigenvalues ---    0.09496   0.09496   0.24700   0.28773   0.28773
     Eigenvalues ---    0.320641000.000001000.000001000.000001000.00000
     Eigenvalues --- 1000.000001000.000001000.000001000.000001000.00000
     Eigenvalues --- 1000.000001000.000001000.000001000.000001000.00000
     Eigenvalues --- 1000.000001000.000001000.000001000.000001000.00000
     Eigenvalues --- 1000.000001000.000001000.000001000.000001000.00000
 RFO step:  Lambda=-3.55886441D-05 EMin= 3.07298763D-02
 Quartic linear search produced a step of  0.29187.
 Iteration  1 RMS(Cart)=  0.00221140 RMS(Int)=  0.00002005
 Iteration  2 RMS(Cart)=  0.00000939 RMS(Int)=  0.00001640
 Iteration  3 RMS(Cart)=  0.00000000 RMS(Int)=  0.00001640
 Iteration  1 RMS(Cart)=  0.00000090 RMS(Int)=  0.00000226
 ITry= 1 IFail=0 DXMaxC= 6.61D-03 DCOld= 1.00D+10 DXMaxT= 3.00D-01 DXLimC= 3.00D+00 Rises=F
 Variable       Old X    -DE/DX   Delta X   Delta X   Delta X     New X
                                 (Linear)    (Quad)   (Total)
    R1        2.09651   0.00030   0.00010   0.00173   0.00183   2.09833
    R2        2.09651   0.00030   0.00010   0.00173   0.00183   2.09833
    R3        2.09651   0.00030   0.00010   0.00173   0.00183   2.09833
    R4        6.61404  -0.00057   0.00000   0.00000   0.00001   6.61405
    R5        3.34663  -0.00138  -0.00849  -0.00223  -0.01072   3.33592
    R6        6.30415  -0.00078  -0.00139  -0.00972  -0.01112   6.29303
    R7        6.30414  -0.00078  -0.00139  -0.00972  -0.01112   6.29302
    R8        6.30413  -0.00078  -0.00139  -0.00972  -0.01112   6.29301
    A1        1.94167  -0.00011  -0.00062  -0.00432  -0.00497   1.93670
    A2        1.94167  -0.00011  -0.00062  -0.00432  -0.00497   1.93670
    A3        1.87847   0.00012   0.00067   0.00465   0.00532   1.88379
    A4        1.94167  -0.00011  -0.00062  -0.00432  -0.00497   1.93670
    A5        1.87847   0.00012   0.00067   0.00465   0.00532   1.88379
    A6        1.87847   0.00012   0.00067   0.00465   0.00532   1.88379
    A7        1.55596   0.00004   0.00065   0.00435   0.00501   1.56097
    A8        1.55597   0.00004   0.00065   0.00435   0.00501   1.56097
    A9        1.55597   0.00004   0.00065   0.00435   0.00501   1.56098
   A10        0.55610   0.00013   0.00003   0.00051   0.00053   0.55663
   A11        0.55610   0.00013   0.00003   0.00051   0.00053   0.55663
   A12        0.55610   0.00013   0.00003   0.00051   0.00053   0.55663
    D1       -1.08771   0.00015   0.00086   0.00602   0.00685  -1.08086
    D2        1.08771  -0.00015  -0.00086  -0.00602  -0.00685   1.08085
    D3        3.14159   0.00000   0.00000   0.00000   0.00000   3.14159
    D4        1.08771  -0.00015  -0.00086  -0.00602  -0.00685   1.08086
    D5       -1.08771   0.00015   0.00086   0.00602   0.00685  -1.08085
    D6       -3.14159   0.00000   0.00000   0.00000   0.00000  -3.14159
    D7       -1.08771   0.00015   0.00086   0.00602   0.00685  -1.08086
    D8        1.08771  -0.00015  -0.00086  -0.00602  -0.00685   1.08085
    D9        3.14159   0.00000   0.00000   0.00000   0.00000   3.14159
   D10        0.54682   0.00001   0.00000   0.00004   0.00005   0.54686
   D11       -0.54682  -0.00001   0.00000  -0.00004  -0.00005  -0.54686
   D12       -0.54682  -0.00001   0.00000  -0.00004  -0.00005  -0.54686
   D13        0.54682   0.00001   0.00000   0.00004   0.00005   0.54686
   D14        0.54682   0.00001   0.00000   0.00004   0.00005   0.54686
   D15       -0.54682  -0.00001   0.00000  -0.00004  -0.00005  -0.54686
         Item               Value     Threshold  Converged?
 Maximum Force            0.001383     0.000450     NO 
 RMS     Force            0.000332     0.000300     NO 
 Maximum Displacement     0.006614     0.001800     NO 
 RMS     Displacement     0.002214     0.001200     NO 
 Predicted change in Energy=-2.732974D-05
 Lowest energy point so far.  Saving SCF results.
 GradGradGradGradGradGradGradGradGradGradGradGradGradGradGradGradGradGrad

 Leave Link  103 at Thu Mar 16 12:16:17 2017, MaxMem=   134217728 cpu:         0.0
 (Enter /n/sw/g09_D.01/g09/l202.exe)
                          Input orientation:                          
 ---------------------------------------------------------------------
 Center     Atomic      Atomic             Coordinates (Angstroms)
 Number     Number       Type             X           Y           Z
 ---------------------------------------------------------------------
      1          6           0       -0.097599   -0.177169    0.409528
      2          1           0        0.962386    0.153277    0.423782
      3          1           0       -0.779375    0.682224    0.237506
      4          1           0       -0.256634   -0.969153   -0.352335
      5         17           0        0.650286    1.180436   -2.728563
      6         17           0       -0.474813   -0.861904    1.992278
 ---------------------------------------------------------------------
                    Distance matrix (angstroms):
                    1          2          3          4          5
     1  C    0.000000
     2  H    1.110390   0.000000
     3  H    1.110390   1.829813   0.000000
     4  H    1.110390   1.829813   1.829813   0.000000
     5  Cl   3.500006   3.330127   3.330122   3.330120   0.000000
     6  Cl   1.765290   2.357183   2.357183   2.357183   5.265296
                    6
     6  Cl   0.000000
 This structure is nearly, but not quite of a higher symmetry.
 Consider Symm=Loose if the higher symmetry is desired.
 Stoichiometry    CH3Cl2(1-)
 Framework group  C1[X(CH3Cl2)]
 Deg. of freedom    12
 Full point group                 C1      NOp   1
 RotChk:  IX=3 Diff= 1.00D+00
 Largest Abelian subgroup         C1      NOp   1
 Largest concise Abelian subgroup C1      NOp   1
                         Standard orientation:                         
 ---------------------------------------------------------------------
 Center     Atomic      Atomic             Coordinates (Angstroms)
 Number     Number       Type             X           Y           Z
 ---------------------------------------------------------------------
      1          6           0        0.369264    0.551312   -0.251658
      2          1           0        0.089386   -0.093641   -1.111117
      3          1           0       -0.533937    0.948622    0.257595
      4          1           0        1.018640    0.002139    0.462265
      5         17           0       -1.451904   -2.167690    0.989476
      6         17           0        1.287805    1.922691   -0.877640
 ---------------------------------------------------------------------
 Rotational constants (GHZ):    149.7678157      1.0218298      1.0218298
 Leave Link  202 at Thu Mar 16 12:16:17 2017, MaxMem=   134217728 cpu:         0.0
 (Enter /n/sw/g09_D.01/g09/l301.exe)
 Standard basis: VSTO-6G (5D, 7F)
 Ernie: Thresh=  0.10000D-02 Tol=  0.10000D-05 Strict=F.
  NNHCO=     0 NNPyr=     0 NCTC=     0               EPep=         0.000000000
    EC=        28.289454332  ECS=         0.498136984   EG=         0.108330879
   EHC=         0.000000000  EAt=       -33.052414446  AtH=         0.613817032
 EPDDG=         0.000000000  ECC=        28.895922194 EAtT=        33.666231478
 There are    15 symmetry adapted cartesian basis functions of A   symmetry.
 There are    15 symmetry adapted basis functions of A   symmetry.
    15 basis functions,    90 primitive gaussians,    15 cartesian basis functions
    11 alpha electrons       11 beta electrons
       nuclear repulsion energy        62.5621536727 Hartrees.
 IExCor=    0 DFT=F Ex=HF Corr=None ExCW=0 ScaHFX=  1.000000
 ScaDFX=  1.000000  1.000000  1.000000  1.000000 ScalE2=  1.000000  1.000000
 IRadAn=      0 IRanWt=     -1 IRanGd=            0 ICorTp=0 IEmpDi=  4
 Integral buffers will be    131072 words long.
 Regular integral format.
 Two-electron integral symmetry is turned off.
 Leave Link  301 at Thu Mar 16 12:16:17 2017, MaxMem=   134217728 cpu:         0.0
 (Enter /n/sw/g09_D.01/g09/l302.exe)
 Do NDO integrals.
 NPDir=0 NMtPBC=     1 NCelOv=     1 NCel=       1 NClECP=     1 NCelD=      1
         NCelK=      1 NCelE2=     1 NClLst=     1 CellRange=     0.0.
 One-electron integrals computed using PRISM.
 NBasis=    15 RedAO= F EigKep=  0.00D+00  NBF=    15
 NBsUse=    15 1.00D-04 EigRej=  0.00D+00 NBFU=    15
 Leave Link  302 at Thu Mar 16 12:16:17 2017, MaxMem=   134217728 cpu:         0.1
 (Enter /n/sw/g09_D.01/g09/l303.exe)
 DipDrv:  MaxL=1.
 Leave Link  303 at Thu Mar 16 12:16:17 2017, MaxMem=   134217728 cpu:         0.0
 (Enter /n/sw/g09_D.01/g09/l401.exe)
 Initial guess from the checkpoint file:  "/scratch/ekwan_MeCl_scan/Gau-9182.chk"
 B after Tr=     0.000000    0.000000    0.000000
         Rot=    0.934780   -0.196177   -0.082382   -0.284454 Ang= -41.61 deg.
 Guess basis will be translated and rotated to current coordinates.
 JPrj=0 DoOrth=T DoCkMO=T.
 Leave Link  401 at Thu Mar 16 12:16:17 2017, MaxMem=   134217728 cpu:         0.1
 (Enter /n/sw/g09_D.01/g09/l502.exe)
 Closed shell SCF:
 Using DIIS extrapolation, IDIIS=  1040.
 Overlap will be assumed to be unity.
 Two-electron integral symmetry not used.
 Keep J ints in memory in canonical form, NReq=884770.
 IVT=       79028 IEndB=       79028 NGot=   134217728 MDV=   134138140
 LenX=   134138140 LenY=   134137258
 Requested convergence on RMS density matrix=1.00D-08 within 128 cycles.
 Requested convergence on MAX density matrix=1.00D-06.
 Requested convergence on             energy=1.00D-06.
 No special actions if energy rises.
 FoFCou: FMM=F IPFlag=           0 FMFlag=           0 FMFlg1=           0
         NFxFlg=           0 DoJE=F BraDBF=F KetDBF=F FulRan=T
         wScrn=  0.000000 ICntrl=     600 IOpCl=  2 I1Cent=           0 NGrid=           0
         NMat0=    1 NMatS0=     33 NMatT0=    0 NMatD0=    1 NMtDS0=    0 NMtDT0=    0
 Symmetry not used in FoFCou.

 Cycle   1  Pass 1  IDiag  1:
 E=-0.100621944692875    
 DIIS: error= 4.49D-04 at cycle   1 NSaved=   1.
 NSaved= 1 IEnMin= 1 EnMin=-0.100621944692875     IErMin= 1 ErrMin= 4.49D-04
 ErrMax= 4.49D-04  0.00D+00 EMaxC= 1.00D-01 BMatC= 4.38D-06 BMatP= 4.38D-06
 IDIUse=3 WtCom= 9.96D-01 WtEn= 4.49D-03
 Coeff-Com:  0.100D+01
 Coeff-En:   0.100D+01
 Coeff:      0.100D+01
 RMSDP=2.41D-04 MaxDP=9.69D-04              OVMax= 0.00D+00

 Cycle   2  Pass 1  IDiag  3:
 E=-0.100635226451630     Delta-E=       -0.000013281759 Rises=F Damp=F
 DIIS: error= 1.28D-04 at cycle   2 NSaved=   2.
 NSaved= 2 IEnMin= 2 EnMin=-0.100635226451630     IErMin= 2 ErrMin= 1.28D-04
 ErrMax= 1.28D-04  0.00D+00 EMaxC= 1.00D-01 BMatC= 4.00D-07 BMatP= 4.38D-06
 IDIUse=3 WtCom= 9.99D-01 WtEn= 1.28D-03
 Coeff-Com: -0.393D+00 0.139D+01
 Coeff-En:   0.000D+00 0.100D+01
 Coeff:     -0.392D+00 0.139D+01
 Gap=     0.298 Goal=   None    Shift=    0.000
 RMSDP=1.13D-04 MaxDP=4.47D-04 DE=-1.33D-05 OVMax= 8.25D-04

 Cycle   3  Pass 1  IDiag  3:
 E=-0.100636828331595     Delta-E=       -0.000001601880 Rises=F Damp=F
 DIIS: error= 1.24D-05 at cycle   3 NSaved=   3.
 NSaved= 3 IEnMin= 3 EnMin=-0.100636828331595     IErMin= 3 ErrMin= 1.24D-05
 ErrMax= 1.24D-05  0.00D+00 EMaxC= 1.00D-01 BMatC= 6.29D-09 BMatP= 4.00D-07
 IDIUse=1 WtCom= 1.00D+00 WtEn= 0.00D+00
 Coeff-Com:  0.161D+00-0.620D+00 0.146D+01
 Coeff:      0.161D+00-0.620D+00 0.146D+01
 Gap=     0.298 Goal=   None    Shift=    0.000
 RMSDP=1.72D-05 MaxDP=7.02D-05 DE=-1.60D-06 OVMax= 1.30D-04

 Cycle   4  Pass 1  IDiag  3:
 E=-0.100636857211441     Delta-E=       -0.000000028880 Rises=F Damp=F
 DIIS: error= 1.29D-06 at cycle   4 NSaved=   4.
 NSaved= 4 IEnMin= 4 EnMin=-0.100636857211441     IErMin= 4 ErrMin= 1.29D-06
 ErrMax= 1.29D-06  0.00D+00 EMaxC= 1.00D-01 BMatC= 4.71D-11 BMatP= 6.29D-09
 IDIUse=1 WtCom= 1.00D+00 WtEn= 0.00D+00
 Coeff-Com: -0.762D-01 0.294D+00-0.710D+00 0.149D+01
 Coeff:     -0.762D-01 0.294D+00-0.710D+00 0.149D+01
 Gap=     0.298 Goal=   None    Shift=    0.000
 RMSDP=1.70D-06 MaxDP=5.72D-06 DE=-2.89D-08 OVMax= 9.21D-06

 Cycle   5  Pass 1  IDiag  3:
 E=-0.100636857470235     Delta-E=       -0.000000000259 Rises=F Damp=F
 DIIS: error= 1.26D-07 at cycle   5 NSaved=   5.
 NSaved= 5 IEnMin= 5 EnMin=-0.100636857470235     IErMin= 5 ErrMin= 1.26D-07
 ErrMax= 1.26D-07  0.00D+00 EMaxC= 1.00D-01 BMatC= 8.29D-13 BMatP= 4.71D-11
 IDIUse=1 WtCom= 1.00D+00 WtEn= 0.00D+00
 Coeff-Com:  0.289D-01-0.112D+00 0.271D+00-0.625D+00 0.144D+01
 Coeff:      0.289D-01-0.112D+00 0.271D+00-0.625D+00 0.144D+01
 Gap=     0.298 Goal=   None    Shift=    0.000
 RMSDP=2.36D-07 MaxDP=8.33D-07 DE=-2.59D-10 OVMax= 1.21D-06

 Cycle   6  Pass 1  IDiag  3:
 E=-0.100636857474989     Delta-E=       -0.000000000005 Rises=F Damp=F
 DIIS: error= 3.28D-08 at cycle   6 NSaved=   6.
 NSaved= 6 IEnMin= 6 EnMin=-0.100636857474989     IErMin= 6 ErrMin= 3.28D-08
 ErrMax= 3.28D-08  0.00D+00 EMaxC= 1.00D-01 BMatC= 3.23D-14 BMatP= 8.29D-13
 IDIUse=1 WtCom= 1.00D+00 WtEn= 0.00D+00
 Coeff-Com: -0.164D-01 0.631D-01-0.153D+00 0.361D+00-0.916D+00 0.166D+01
 Coeff:     -0.164D-01 0.631D-01-0.153D+00 0.361D+00-0.916D+00 0.166D+01
 Gap=     0.298 Goal=   None    Shift=    0.000
 RMSDP=4.55D-08 MaxDP=2.23D-07 DE=-4.75D-12 OVMax= 2.25D-07

 Cycle   7  Pass 1  IDiag  3:
 E=-0.100636857475209     Delta-E=        0.000000000000 Rises=F Damp=F
 DIIS: error= 2.61D-09 at cycle   7 NSaved=   7.
 NSaved= 7 IEnMin= 7 EnMin=-0.100636857475209     IErMin= 7 ErrMin= 2.61D-09
 ErrMax= 2.61D-09  0.00D+00 EMaxC= 1.00D-01 BMatC= 3.16D-16 BMatP= 3.23D-14
 IDIUse=1 WtCom= 1.00D+00 WtEn= 0.00D+00
 Coeff-Com:  0.322D-02-0.124D-01 0.302D-01-0.721D-01 0.186D+00-0.391D+00
 Coeff-Com:  0.126D+01
 Coeff:      0.322D-02-0.124D-01 0.302D-01-0.721D-01 0.186D+00-0.391D+00
 Coeff:      0.126D+01
 Gap=     0.298 Goal=   None    Shift=    0.000
 RMSDP=4.29D-09 MaxDP=1.62D-08 DE=-2.20D-13 OVMax= 2.49D-08

 Cycle   8  Pass 2  IDiag  1:
 SCF Done:  E(RAM1) = -0.100636857475     A.U. after    8 cycles
            NFock=  7  Conv=0.43D-08     -V/T= 0.9921
 KE=-1.276799013744D+01 PE=-1.019159728414D+02 EE= 5.202117244865D+01
 Leave Link  502 at Thu Mar 16 12:16:17 2017, MaxMem=   134217728 cpu:         0.0
 (Enter /n/sw/g09_D.01/g09/l701.exe)
 Compute integral first derivatives.
 ... and contract with generalized density number  0.
 Leave Link  701 at Thu Mar 16 12:16:17 2017, MaxMem=   134217728 cpu:         0.0
 (Enter /n/sw/g09_D.01/g09/l702.exe)
 L702 exits ... SP integral derivatives will be done elsewhere.
 Leave Link  702 at Thu Mar 16 12:16:17 2017, MaxMem=   134217728 cpu:         0.0
 (Enter /n/sw/g09_D.01/g09/l703.exe)
 Compute integral first derivatives, UseDBF=F ICtDFT=           0.
 Integral derivatives from FoFJK, PRISM(SPDF).
 Calling FoFJK, ICntrl=      2127 FMM=F ISym2X=0 I1Cent= 0 IOpClX= 0 NMat=1 NMatS=1 NMatT=0.
 FoFJK:  IHMeth= 8 ICntrl=    2127 DoSepK=F KAlg= 0 I1Cent=   0 FoldK=F
 IRaf=         0 NMat=   1 IRICut=       1 DoRegI=T DoRafI=F ISym2E= 0.
 FoFCou: FMM=F IPFlag=           0 FMFlag=      100000 FMFlg1=         800
         NFxFlg=           0 DoJE=F BraDBF=F KetDBF=F FulRan=T
         wScrn=  0.000000 ICntrl=    2127 IOpCl=  0 I1Cent=           0 NGrid=           0
         NMat0=    1 NMatS0=      1 NMatT0=    0 NMatD0=    1 NMtDS0=    0 NMtDT0=    0
 Symmetry not used in FoFCou.
 Leave Link  703 at Thu Mar 16 12:16:17 2017, MaxMem=   134217728 cpu:         0.0
 (Enter /n/sw/g09_D.01/g09/l716.exe)
 Dipole        = 2.24503190D+00 3.35182997D+00-1.52999616D+00
 ***** Axes restored to original set *****
 -------------------------------------------------------------------
 Center     Atomic                   Forces (Hartrees/Bohr)
 Number     Number              X              Y              Z
 -------------------------------------------------------------------
      1        6           0.000261038    0.000473766   -0.001095005
      2        1          -0.000122759    0.000200576   -0.000670345
      3        1           0.000339950    0.000060110   -0.000620868
      4        1           0.000201103    0.000498711   -0.000464217
      5       17          -0.000600740   -0.001090497    0.002520671
      6       17          -0.000078592   -0.000142666    0.000329764
 -------------------------------------------------------------------
 Cartesian Forces:  Max     0.002520671 RMS     0.000783324
 Leave Link  716 at Thu Mar 16 12:16:17 2017, MaxMem=   134217728 cpu:         0.0
 (Enter /n/sw/g09_D.01/g09/l103.exe)

 GradGradGradGradGradGradGradGradGradGradGradGradGradGradGradGradGradGrad
 Berny optimization.
 Using GEDIIS/GDIIS optimizer.
 FormGI is forming the generalized inverse of G from B-inverse, IUseBI=4.
 Internal  Forces:  Max     0.000754344 RMS     0.000254896
 Search for a local minimum.
 Step number   3 out of a maximum of   45 on scan point     1 out of    41
 All quantities printed in internal units (Hartrees-Bohrs-Radians)
 RMS Force = .14999D-03 SwitMx=.10000D-02 MixMth= 2
 Mixed Optimization -- En-DIIS/RFO-DIIS
 Swapping is turned off.
 Update second derivatives using D2CorX and points    1    2    3
 DE= -3.62D-05 DEPred=-2.73D-05 R= 1.33D+00
 TightC=F SS=  1.41D+00  RLast= 3.18D-02 DXNew= 5.0454D-01 9.5470D-02
 Trust test= 1.33D+00 RLast= 3.18D-02 DXMaxT set to 3.00D-01
 ITU=  1  1  0
     Eigenvalues ---    0.02517   0.03067   0.03067   0.07310   0.07310
     Eigenvalues ---    0.09480   0.09480   0.28766   0.28766   0.31963
     Eigenvalues ---    0.348301000.000001000.000001000.000001000.00000
     Eigenvalues --- 1000.000001000.000001000.000001000.000001000.00000
     Eigenvalues --- 1000.000001000.000001000.000001000.000001000.00000
     Eigenvalues --- 1000.000001000.000001000.000001000.000001000.00000
     Eigenvalues --- 1000.000001000.000001000.000001000.000001000.00000
 En-DIIS/RFO-DIIS IScMMF=        0 using points:     3    2
 RFO step:  Lambda=-3.59760447D-06.
 NNeg= 0 NP= 2 Switch=  2.50D-03 Rises=F DC=  3.62D-05 SmlDif=  1.00D-05
 RMS Error=  0.7600841363D-03 NUsed= 2 EDIIS=F
 DidBck=F Rises=F RFO-DIIS coefs:    1.57413   -0.57413
 Iteration  1 RMS(Cart)=  0.00202235 RMS(Int)=  0.00002354
 Iteration  2 RMS(Cart)=  0.00000734 RMS(Int)=  0.00002197
 Iteration  3 RMS(Cart)=  0.00000000 RMS(Int)=  0.00002197
 Iteration  1 RMS(Cart)=  0.00000171 RMS(Int)=  0.00000431
 Iteration  2 RMS(Cart)=  0.00000106 RMS(Int)=  0.00000479
 Iteration  3 RMS(Cart)=  0.00000066 RMS(Int)=  0.00000548
 ITry= 1 IFail=0 DXMaxC= 5.05D-03 DCOld= 1.00D+10 DXMaxT= 3.00D-01 DXLimC= 3.00D+00 Rises=F
 Variable       Old X    -DE/DX   Delta X   Delta X   Delta X     New X
                                 (Linear)    (Quad)   (Total)
    R1        2.09833  -0.00008   0.00105  -0.00055   0.00051   2.09884
    R2        2.09833  -0.00008   0.00105  -0.00055   0.00051   2.09884
    R3        2.09833  -0.00008   0.00105  -0.00055   0.00051   2.09884
    R4        6.61405  -0.00075   0.00001   0.00000   0.00000   6.61405
    R5        3.33592   0.00037  -0.00615   0.00216  -0.00400   3.33192
    R6        6.29303  -0.00072  -0.00638  -0.00387  -0.01028   6.28275
    R7        6.29302  -0.00072  -0.00638  -0.00387  -0.01028   6.28274
    R8        6.29301  -0.00072  -0.00638  -0.00387  -0.01028   6.28274
    A1        1.93670   0.00000  -0.00285  -0.00173  -0.00464   1.93206
    A2        1.93670   0.00000  -0.00285  -0.00173  -0.00464   1.93206
    A3        1.88379   0.00000   0.00305   0.00184   0.00490   1.88869
    A4        1.93670   0.00000  -0.00285  -0.00173  -0.00464   1.93206
    A5        1.88379   0.00000   0.00305   0.00184   0.00490   1.88869
    A6        1.88379   0.00000   0.00305   0.00184   0.00490   1.88869
    A7        1.56097  -0.00003   0.00287   0.00192   0.00481   1.56578
    A8        1.56097  -0.00003   0.00287   0.00192   0.00481   1.56578
    A9        1.56098  -0.00003   0.00287   0.00192   0.00481   1.56578
   A10        0.55663   0.00004   0.00031  -0.00014   0.00016   0.55679
   A11        0.55663   0.00004   0.00031  -0.00014   0.00016   0.55679
   A12        0.55663   0.00004   0.00031  -0.00014   0.00016   0.55679
    D1       -1.08086   0.00000   0.00393   0.00236   0.00626  -1.07460
    D2        1.08085   0.00000  -0.00393  -0.00236  -0.00626   1.07460
    D3        3.14159   0.00000   0.00000   0.00000   0.00000   3.14159
    D4        1.08086   0.00000  -0.00393  -0.00236  -0.00626   1.07460
    D5       -1.08085   0.00000   0.00393   0.00236   0.00626  -1.07459
    D6       -3.14159   0.00000   0.00000   0.00000   0.00000  -3.14159
    D7       -1.08086   0.00000   0.00393   0.00236   0.00626  -1.07460
    D8        1.08085   0.00000  -0.00393  -0.00236  -0.00626   1.07459
    D9        3.14159   0.00000   0.00000   0.00000   0.00000   3.14159
   D10        0.54686   0.00000   0.00003  -0.00001   0.00001   0.54688
   D11       -0.54686   0.00000  -0.00003   0.00001  -0.00001  -0.54688
   D12       -0.54686   0.00000  -0.00003   0.00001  -0.00001  -0.54688
   D13        0.54686   0.00000   0.00003  -0.00001   0.00001   0.54688
   D14        0.54686   0.00000   0.00003  -0.00001   0.00001   0.54688
   D15       -0.54686   0.00000  -0.00003   0.00001  -0.00001  -0.54688
         Item               Value     Threshold  Converged?
 Maximum Force            0.000368     0.000450     YES
 RMS     Force            0.000150     0.000300     YES
 Maximum Displacement     0.005051     0.001800     NO 
 RMS     Displacement     0.002025     0.001200     NO 
 Predicted change in Energy=-1.010744D-05
 Lowest energy point so far.  Saving SCF results.
 GradGradGradGradGradGradGradGradGradGradGradGradGradGradGradGradGradGrad

 Leave Link  103 at Thu Mar 16 12:16:18 2017, MaxMem=   134217728 cpu:         0.0
 (Enter /n/sw/g09_D.01/g09/l202.exe)
                          Input orientation:                          
 ---------------------------------------------------------------------
 Center     Atomic      Atomic             Coordinates (Angstroms)
 Number     Number       Type             X           Y           Z
 ---------------------------------------------------------------------
      1          6           0       -0.098236   -0.178325    0.412199
      2          1           0        0.961534    0.153891    0.421307
      3          1           0       -0.777865    0.682120    0.235283
      4          1           0       -0.255833   -0.967016   -0.353757
      5         17           0        0.649649    1.179280   -2.725891
      6         17           0       -0.474998   -0.862240    1.993053
 ---------------------------------------------------------------------
                    Distance matrix (angstroms):
                    1          2          3          4          5
     1  C    0.000000
     2  H    1.110658   0.000000
     3  H    1.110658   1.827331   0.000000
     4  H    1.110658   1.827331   1.827331   0.000000
     5  Cl   3.500004   3.324687   3.324683   3.324680   0.000000
     6  Cl   1.763176   2.359350   2.359350   2.359350   5.263180
                    6
     6  Cl   0.000000
 This structure is nearly, but not quite of a higher symmetry.
 Consider Symm=Loose if the higher symmetry is desired.
 Stoichiometry    CH3Cl2(1-)
 Framework group  C1[X(CH3Cl2)]
 Deg. of freedom    12
 Full point group                 C1      NOp   1
 RotChk:  IX=3 Diff= 1.59D+00
 Largest Abelian subgroup         C1      NOp   1
 Largest concise Abelian subgroup C1      NOp   1
                         Standard orientation:                         
 ---------------------------------------------------------------------
 Center     Atomic      Atomic             Coordinates (Angstroms)
 Number     Number       Type             X           Y           Z
 ---------------------------------------------------------------------
      1          6           0       -0.414391    0.540471   -0.203742
      2          1           0       -0.116757   -0.029343   -1.109439
      3          1           0       -0.997433   -0.101629    0.490037
      4          1           0        0.478115    0.960571    0.306660
      5         17           0        1.625873   -2.120562    0.799379
      6         17           0       -1.442201    1.881008   -0.709073
 ---------------------------------------------------------------------
 Rotational constants (GHZ):    150.1750315      1.0226264      1.0226264
 Leave Link  202 at Thu Mar 16 12:16:18 2017, MaxMem=   134217728 cpu:         0.0
 (Enter /n/sw/g09_D.01/g09/l301.exe)
 Standard basis: VSTO-6G (5D, 7F)
 Ernie: Thresh=  0.10000D-02 Tol=  0.10000D-05 Strict=F.
  NNHCO=     0 NNPyr=     0 NCTC=     0               EPep=         0.000000000
    EC=        28.299341612  ECS=         0.498552887   EG=         0.108548311
   EHC=         0.000000000  EAt=       -33.052414446  AtH=         0.613817032
 EPDDG=         0.000000000  ECC=        28.906442810 EAtT=        33.666231478
 There are    15 symmetry adapted cartesian basis functions of A   symmetry.
 There are    15 symmetry adapted basis functions of A   symmetry.
    15 basis functions,    90 primitive gaussians,    15 cartesian basis functions
    11 alpha electrons       11 beta electrons
       nuclear repulsion energy        62.5726742882 Hartrees.
 IExCor=    0 DFT=F Ex=HF Corr=None ExCW=0 ScaHFX=  1.000000
 ScaDFX=  1.000000  1.000000  1.000000  1.000000 ScalE2=  1.000000  1.000000
 IRadAn=      0 IRanWt=     -1 IRanGd=            0 ICorTp=0 IEmpDi=  4
 Integral buffers will be    131072 words long.
 Regular integral format.
 Two-electron integral symmetry is turned off.
 Leave Link  301 at Thu Mar 16 12:16:18 2017, MaxMem=   134217728 cpu:         0.0
 (Enter /n/sw/g09_D.01/g09/l302.exe)
 Do NDO integrals.
 NPDir=0 NMtPBC=     1 NCelOv=     1 NCel=       1 NClECP=     1 NCelD=      1
         NCelK=      1 NCelE2=     1 NClLst=     1 CellRange=     0.0.
 One-electron integrals computed using PRISM.
 NBasis=    15 RedAO= F EigKep=  0.00D+00  NBF=    15
 NBsUse=    15 1.00D-04 EigRej=  0.00D+00 NBFU=    15
 Leave Link  302 at Thu Mar 16 12:16:18 2017, MaxMem=   134217728 cpu:         0.1
 (Enter /n/sw/g09_D.01/g09/l303.exe)
 DipDrv:  MaxL=1.
 Leave Link  303 at Thu Mar 16 12:16:18 2017, MaxMem=   134217728 cpu:         0.0
 (Enter /n/sw/g09_D.01/g09/l401.exe)
 Initial guess from the checkpoint file:  "/scratch/ekwan_MeCl_scan/Gau-9182.chk"
 B after Tr=     0.000000    0.000000    0.000000
         Rot=    0.827958   -0.032257   -0.107346   -0.549474 Ang= -68.22 deg.
 Guess basis will be translated and rotated to current coordinates.
 JPrj=0 DoOrth=T DoCkMO=T.
 Leave Link  401 at Thu Mar 16 12:16:18 2017, MaxMem=   134217728 cpu:         0.1
 (Enter /n/sw/g09_D.01/g09/l502.exe)
 Closed shell SCF:
 Using DIIS extrapolation, IDIIS=  1040.
 Overlap will be assumed to be unity.
 Two-electron integral symmetry not used.
 Keep J ints in memory in canonical form, NReq=884770.
 IVT=       79028 IEndB=       79028 NGot=   134217728 MDV=   134138140
 LenX=   134138140 LenY=   134137258
 Requested convergence on RMS density matrix=1.00D-08 within 128 cycles.
 Requested convergence on MAX density matrix=1.00D-06.
 Requested convergence on             energy=1.00D-06.
 No special actions if energy rises.
 FoFCou: FMM=F IPFlag=           0 FMFlag=           0 FMFlg1=           0
         NFxFlg=           0 DoJE=F BraDBF=F KetDBF=F FulRan=T
         wScrn=  0.000000 ICntrl=     600 IOpCl=  2 I1Cent=           0 NGrid=           0
         NMat0=    1 NMatS0=     33 NMatT0=    0 NMatD0=    1 NMtDS0=    0 NMtDT0=    0
 Symmetry not used in FoFCou.

 Cycle   1  Pass 1  IDiag  1:
 E=-0.100642487481743    
 DIIS: error= 2.93D-04 at cycle   1 NSaved=   1.
 NSaved= 1 IEnMin= 1 EnMin=-0.100642487481743     IErMin= 1 ErrMin= 2.93D-04
 ErrMax= 2.93D-04  0.00D+00 EMaxC= 1.00D-01 BMatC= 1.67D-06 BMatP= 1.67D-06
 IDIUse=3 WtCom= 9.97D-01 WtEn= 2.93D-03
 Coeff-Com:  0.100D+01
 Coeff-En:   0.100D+01
 Coeff:      0.100D+01
 RMSDP=1.56D-04 MaxDP=6.51D-04              OVMax= 0.00D+00

 Cycle   2  Pass 1  IDiag  3:
 E=-0.100647937451846     Delta-E=       -0.000005449970 Rises=F Damp=F
 DIIS: error= 8.56D-05 at cycle   2 NSaved=   2.
 NSaved= 2 IEnMin= 2 EnMin=-0.100647937451846     IErMin= 2 ErrMin= 8.56D-05
 ErrMax= 8.56D-05  0.00D+00 EMaxC= 1.00D-01 BMatC= 1.74D-07 BMatP= 1.67D-06
 IDIUse=1 WtCom= 1.00D+00 WtEn= 0.00D+00
 Coeff-Com: -0.440D+00 0.144D+01
 Coeff:     -0.440D+00 0.144D+01
 Gap=     0.298 Goal=   None    Shift=    0.000
 RMSDP=7.87D-05 MaxDP=3.14D-04 DE=-5.45D-06 OVMax= 5.33D-04

 Cycle   3  Pass 1  IDiag  3:
 E=-0.100648664948139     Delta-E=       -0.000000727496 Rises=F Damp=F
 DIIS: error= 7.72D-06 at cycle   3 NSaved=   3.
 NSaved= 3 IEnMin= 3 EnMin=-0.100648664948139     IErMin= 3 ErrMin= 7.72D-06
 ErrMax= 7.72D-06  0.00D+00 EMaxC= 1.00D-01 BMatC= 2.09D-09 BMatP= 1.74D-07
 IDIUse=1 WtCom= 1.00D+00 WtEn= 0.00D+00
 Coeff-Com:  0.173D+00-0.606D+00 0.143D+01
 Coeff:      0.173D+00-0.606D+00 0.143D+01
 Gap=     0.298 Goal=   None    Shift=    0.000
 RMSDP=9.60D-06 MaxDP=3.64D-05 DE=-7.27D-07 OVMax= 6.98D-05

 Cycle   4  Pass 1  IDiag  3:
 E=-0.100648674203960     Delta-E=       -0.000000009256 Rises=F Damp=F
 DIIS: error= 9.51D-07 at cycle   4 NSaved=   4.
 NSaved= 4 IEnMin= 4 EnMin=-0.100648674203960     IErMin= 4 ErrMin= 9.51D-07
 ErrMax= 9.51D-07  0.00D+00 EMaxC= 1.00D-01 BMatC= 2.05D-11 BMatP= 2.09D-09
 IDIUse=1 WtCom= 1.00D+00 WtEn= 0.00D+00
 Coeff-Com: -0.908D-01 0.320D+00-0.778D+00 0.155D+01
 Coeff:     -0.908D-01 0.320D+00-0.778D+00 0.155D+01
 Gap=     0.298 Goal=   None    Shift=    0.000
 RMSDP=1.20D-06 MaxDP=4.32D-06 DE=-9.26D-09 OVMax= 6.53D-06

 Cycle   5  Pass 1  IDiag  3:
 E=-0.100648674323466     Delta-E=       -0.000000000120 Rises=F Damp=F
 DIIS: error= 1.04D-07 at cycle   5 NSaved=   5.
 NSaved= 5 IEnMin= 5 EnMin=-0.100648674323466     IErMin= 5 ErrMin= 1.04D-07
 ErrMax= 1.04D-07  0.00D+00 EMaxC= 1.00D-01 BMatC= 3.06D-13 BMatP= 2.05D-11
 IDIUse=1 WtCom= 1.00D+00 WtEn= 0.00D+00
 Coeff-Com:  0.357D-01-0.126D+00 0.307D+00-0.655D+00 0.144D+01
 Coeff:      0.357D-01-0.126D+00 0.307D+00-0.655D+00 0.144D+01
 Gap=     0.298 Goal=   None    Shift=    0.000
 RMSDP=1.40D-07 MaxDP=6.61D-07 DE=-1.20D-10 OVMax= 7.26D-07

 Cycle   6  Pass 1  IDiag  3:
 E=-0.100648674325164     Delta-E=       -0.000000000002 Rises=F Damp=F
 DIIS: error= 2.53D-08 at cycle   6 NSaved=   6.
 NSaved= 6 IEnMin= 6 EnMin=-0.100648674325164     IErMin= 6 ErrMin= 2.53D-08
 ErrMax= 2.53D-08  0.00D+00 EMaxC= 1.00D-01 BMatC= 1.26D-14 BMatP= 3.06D-13
 IDIUse=1 WtCom= 1.00D+00 WtEn= 0.00D+00
 Coeff-Com: -0.173D-01 0.608D-01-0.148D+00 0.322D+00-0.822D+00 0.161D+01
 Coeff:     -0.173D-01 0.608D-01-0.148D+00 0.322D+00-0.822D+00 0.161D+01
 Gap=     0.298 Goal=   None    Shift=    0.000
 RMSDP=2.86D-08 MaxDP=1.71D-07 DE=-1.70D-12 OVMax= 1.51D-07

 Cycle   7  Pass 1  IDiag  3:
 E=-0.100648674325264     Delta-E=        0.000000000000 Rises=F Damp=F
 DIIS: error= 1.35D-09 at cycle   7 NSaved=   7.
 NSaved= 7 IEnMin= 7 EnMin=-0.100648674325264     IErMin= 7 ErrMin= 1.35D-09
 ErrMax= 1.35D-09  0.00D+00 EMaxC= 1.00D-01 BMatC= 9.60D-17 BMatP= 1.26D-14
 IDIUse=1 WtCom= 1.00D+00 WtEn= 0.00D+00
 Coeff-Com:  0.397D-02-0.140D-01 0.341D-01-0.743D-01 0.193D+00-0.422D+00
 Coeff-Com:  0.128D+01
 Coeff:      0.397D-02-0.140D-01 0.341D-01-0.743D-01 0.193D+00-0.422D+00
 Coeff:      0.128D+01
 Gap=     0.298 Goal=   None    Shift=    0.000
 RMSDP=2.39D-09 MaxDP=8.76D-09 DE=-9.95D-14 OVMax= 1.06D-08

 Cycle   8  Pass 2  IDiag  1:
 SCF Done:  E(RAM1) = -0.100648674325     A.U. after    8 cycles
            NFock=  7  Conv=0.24D-08     -V/T= 0.9921
 KE=-1.276870799552D+01 PE=-1.019362154939D+02 EE= 5.203160052687D+01
 Leave Link  502 at Thu Mar 16 12:16:18 2017, MaxMem=   134217728 cpu:         0.0
 (Enter /n/sw/g09_D.01/g09/l701.exe)
 Compute integral first derivatives.
 ... and contract with generalized density number  0.
 Leave Link  701 at Thu Mar 16 12:16:18 2017, MaxMem=   134217728 cpu:         0.1
 (Enter /n/sw/g09_D.01/g09/l702.exe)
 L702 exits ... SP integral derivatives will be done elsewhere.
 Leave Link  702 at Thu Mar 16 12:16:18 2017, MaxMem=   134217728 cpu:         0.0
 (Enter /n/sw/g09_D.01/g09/l703.exe)
 Compute integral first derivatives, UseDBF=F ICtDFT=           0.
 Integral derivatives from FoFJK, PRISM(SPDF).
 Calling FoFJK, ICntrl=      2127 FMM=F ISym2X=0 I1Cent= 0 IOpClX= 0 NMat=1 NMatS=1 NMatT=0.
 FoFJK:  IHMeth= 8 ICntrl=    2127 DoSepK=F KAlg= 0 I1Cent=   0 FoldK=F
 IRaf=         0 NMat=   1 IRICut=       1 DoRegI=T DoRafI=F ISym2E= 0.
 FoFCou: FMM=F IPFlag=           0 FMFlag=      100000 FMFlg1=         800
         NFxFlg=           0 DoJE=F BraDBF=F KetDBF=F FulRan=T
         wScrn=  0.000000 ICntrl=    2127 IOpCl=  0 I1Cent=           0 NGrid=           0
         NMat0=    1 NMatS0=      1 NMatT0=    0 NMatD0=    1 NMtDS0=    0 NMtDT0=    0
 Symmetry not used in FoFCou.
 Leave Link  703 at Thu Mar 16 12:16:18 2017, MaxMem=   134217728 cpu:         0.0
 (Enter /n/sw/g09_D.01/g09/l716.exe)
 Dipole        =-2.51625190D+00 3.28184683D+00-1.23714550D+00
 ***** Axes restored to original set *****
 -------------------------------------------------------------------
 Center     Atomic                   Forces (Hartrees/Bohr)
 Number     Number              X              Y              Z
 -------------------------------------------------------------------
      1        6           0.000621977    0.001128999   -0.002609549
      2        1          -0.000065954    0.000042178   -0.000176563
      3        1           0.000110962   -0.000011504   -0.000157647
      4        1           0.000057890    0.000156161   -0.000097777
      5       17          -0.000601686   -0.001092215    0.002524642
      6       17          -0.000123188   -0.000223619    0.000516895
 -------------------------------------------------------------------
 Cartesian Forces:  Max     0.002609549 RMS     0.000967364
 Leave Link  716 at Thu Mar 16 12:16:18 2017, MaxMem=   134217728 cpu:         0.0
 (Enter /n/sw/g09_D.01/g09/l103.exe)

 GradGradGradGradGradGradGradGradGradGradGradGradGradGradGradGradGradGrad
 Berny optimization.
 Using GEDIIS/GDIIS optimizer.
 FormGI is forming the generalized inverse of G from B-inverse, IUseBI=4.
 Internal  Forces:  Max     0.000984622 RMS     0.000290260
 Search for a local minimum.
 Step number   4 out of a maximum of   45 on scan point     1 out of    41
 All quantities printed in internal units (Hartrees-Bohrs-Radians)
 RMS Force = .10591D-03 SwitMx=.10000D-02 MixMth= 2
 Mixed Optimization -- En-DIIS/RFO-DIIS
 Swapping is turned off.
 Update second derivatives using D2CorX and points    1    2    3    4
 DE= -1.18D-05 DEPred=-1.01D-05 R= 1.17D+00
 TightC=F SS=  1.41D+00  RLast= 2.78D-02 DXNew= 5.0454D-01 8.3495D-02
 Trust test= 1.17D+00 RLast= 2.78D-02 DXMaxT set to 3.00D-01
 ITU=  1  1  1  0
     Eigenvalues ---    0.02176   0.03062   0.03062   0.07267   0.07267
     Eigenvalues ---    0.09468   0.09468   0.28756   0.28756   0.31057
     Eigenvalues ---    0.321921000.000001000.000001000.000001000.00000
     Eigenvalues --- 1000.000001000.000001000.000001000.000001000.00000
     Eigenvalues --- 1000.000001000.000001000.000001000.000001000.00000
     Eigenvalues --- 1000.000001000.000001000.000001000.000001000.00000
     Eigenvalues --- 1000.000001000.000001000.000001000.000001000.00000
 En-DIIS/RFO-DIIS IScMMF=        0 using points:     4    3    2
 RFO step:  Lambda=-8.48989843D-07.
 NNeg= 0 NP= 3 Switch=  2.50D-03 Rises=F DC=  3.62D-05 SmlDif=  1.00D-05
 RMS Error=  0.2358668163D-03 NUsed= 3 EDIIS=F
 DidBck=F Rises=F RFO-DIIS coefs:    1.61546   -0.97972    0.36426
 Iteration  1 RMS(Cart)=  0.00064784 RMS(Int)=  0.00000744
 Iteration  2 RMS(Cart)=  0.00000035 RMS(Int)=  0.00000743
 Iteration  1 RMS(Cart)=  0.00000031 RMS(Int)=  0.00000079
 ITry= 1 IFail=0 DXMaxC= 2.20D-03 DCOld= 1.00D+10 DXMaxT= 3.00D-01 DXLimC= 3.00D+00 Rises=F
 Variable       Old X    -DE/DX   Delta X   Delta X   Delta X     New X
                                 (Linear)    (Quad)   (Total)
    R1        2.09884  -0.00009  -0.00035   0.00028  -0.00008   2.09876
[...]
           A5         106.90433 106.52971 106.08719 105.56563 104.95023
           A6         106.90434 106.52973 106.08720 105.56563 104.95023
           A7          83.30421  82.51825  81.65859  80.71611  79.67894
           A8          83.30456  82.51848  81.65871  80.71613  79.67887
           A9          83.30472  82.51860  81.65877  80.71614  79.67884
           A10         40.57239  41.26832  41.97338  42.68414  43.39563
           A11         40.57242  41.26833  41.97339  42.68414  43.39562
           A12         40.57247  41.26837  41.97341  42.68414  43.39561
           D1         -63.26863 -63.76645 -64.36132 -65.07185 -65.92324
           D2          63.26843  63.76631  64.36124  65.07184  65.92329
           D3         179.99991 179.99994 179.99997 180.00000-179.99998
           D4          63.26885  63.76660  64.36140  65.07186  65.92320
           D5         -63.26821 -63.76616 -64.36117 -65.07183 -65.92333
           D6        -179.99971-179.99980-179.99990-179.99999 179.99994
           D7         -63.26875 -63.76653 -64.36136 -65.07186 -65.92322
           D8          63.26832  63.76623  64.36120  65.07184  65.92331
           D9         179.99980 179.99986 179.99993 179.99999-179.99996
           D10         32.21283  32.29473  32.37953  32.46690  32.55629
           D11        -32.21280 -32.29471 -32.37952 -32.46690 -32.55630
           D12        -32.21281 -32.29471 -32.37952 -32.46690 -32.55630
           D13         32.21269  32.29464  32.37948  32.46690  32.55632
           D14         32.21276  32.29468  32.37951  32.46690  32.55631
           D15        -32.21268 -32.29463 -32.37948 -32.46690 -32.55632
                          21        22        23        24        25
     Eigenvalues --    -0.09958  -0.09818  -0.09660  -0.09486  -0.09305
           R1           1.10583   1.10503   1.10395   1.10286   1.10157
           R2           1.10583   1.10503   1.10395   1.10286   1.10157
           R3           1.10583   1.10503   1.10395   1.10286   1.10157
           R4           2.50000   2.45000   2.40000   2.35000   2.30000
           R5           1.83888   1.85346   1.87440   1.89981   1.93282
           R6           2.47277   2.44406   2.42070   2.40301   2.38846
           R7           2.47277   2.44406   2.42070   2.40301   2.38846
           R8           2.47277   2.44406   2.42070   2.40301   2.38846
           A1         114.17194 114.83690 115.66558 116.62060 117.56338
           A2         114.17193 114.83689 115.66557 116.62061 117.56338
           A3         104.22090 103.34934 102.19032 100.72207  99.06929
           A4         114.17193 114.83690 115.66557 116.62061 117.56340
           A5         104.22088 103.34931 102.19030 100.72209  99.06931
           A6         104.22087 103.34930 102.19029 100.72210  99.06932
           A7          78.53121  77.25110  75.71818  73.91827  71.97603
           A8          78.53109  77.25096  75.71810  73.91835  71.97611
           A9          78.53103  77.25089  75.71806  73.91838  71.97616
           A10         44.10063  44.78830  45.41696  45.97396  46.45985
           A11         44.10062  44.78829  45.41695  45.97397  46.45986
           A12         44.10060  44.78826  45.41693  45.97399  46.45988
           D1         -66.95036 -68.20306 -69.91054 -72.13900 -74.72922
           D2          66.95044  68.20315  69.91060  72.13895  74.72917
           D3        -179.99997-179.99996-179.99998 179.99998 179.99998
           D4          66.95028  68.20297  69.91049  72.13905  74.72928
           D5         -66.95052 -68.20324 -69.91066 -72.13890 -74.72910
           D6         179.99990 179.99989 179.99993-179.99994-179.99993
           D7         -66.95032 -68.20302 -69.91052 -72.13902 -74.72925
           D8          66.95048  68.20320  69.91063  72.13892  74.72913
           D9        -179.99993-179.99993-179.99995 179.99996 179.99996
           D10         32.64679  32.73694  32.82100  32.89684  32.96398
           D11        -32.64680 -32.73695 -32.82101 -32.89683 -32.96398
           D12        -32.64680 -32.73695 -32.82101 -32.89682 -32.96397
           D13         32.64684  32.73699  32.82104  32.89681  32.96395
           D14         32.64682  32.73698  32.82103  32.89681  32.96396
           D15        -32.64684 -32.73700 -32.82104 -32.89681 -32.96394
                          26        27        28        29        30
     Eigenvalues --    -0.09133  -0.08998  -0.08947  -0.09030  -0.09232
           R1           1.10019   1.09845   1.09714   1.09694   1.09812
           R2           1.10019   1.09845   1.09714   1.09694   1.09812
           R3           1.10019   1.09845   1.09714   1.09694   1.09812
           R4           2.25001   2.20001   2.15000   2.10000   2.05000
           R5           1.98010   2.05236   2.16556   2.30787   2.43978
           R6           2.38570   2.39407   2.42117   2.45047   2.46233
           R7           2.38570   2.39407   2.42117   2.45047   2.46233
           R8           2.38570   2.39407   2.42117   2.45047   2.46233
           A1         118.64066 119.57925 119.99427 119.28589 117.92273
           A2         118.64066 119.57925 119.99427 119.28588 117.92272
           A3          96.74390  93.73734  89.56475  85.12513  81.63851
           A4         118.64065 119.57924 119.99428 119.28588 117.92272
           A5          96.74390  93.73732  89.56474  85.12512  81.63849
           A6          96.74389  93.73731  89.56474  85.12512  81.63848
           A7          69.48769  66.48930  62.62001  58.63611  55.45631
           A8          69.48769  66.48927  62.61999  58.63611  55.45630
           A9          69.48769  66.48925  62.61998  58.63611  55.45629
           A10         46.73333  46.71965  46.21070  45.44522  44.92936
           A11         46.73333  46.71964  46.21070  45.44522  44.92936
           A12         46.73332  46.71964  46.21070  45.44522  44.92935
           D1         -78.50301 -83.55862 -90.75383 -98.37323-104.13714
           D2          78.50302  83.55864  90.75384  98.37323 104.13715
           D3        -180.00000-179.99999-180.00000-180.00000 180.00000
           D4          78.50301  83.55859  90.75382  98.37323 104.13713
           D5         -78.50302 -83.55867 -90.75385 -98.37323-104.13716
           D6         180.00000 179.99998 179.99999-180.00000-180.00000
           D7         -78.50301 -83.55861 -90.75383 -98.37323-104.13714
           D8          78.50302  83.55865  90.75385  98.37323 104.13716
           D9        -179.99999-179.99999-179.99999 180.00000 180.00000
           D10         33.00217  33.00025  32.92941  32.82484  32.75569
           D11        -33.00217 -33.00025 -32.92941 -32.82484 -32.75569
           D12        -33.00218 -33.00026 -32.92942 -32.82484 -32.75570
           D13         33.00218  33.00026  32.92941  32.82484  32.75569
           D14         33.00217  33.00026  32.92942  32.82484  32.75570
           D15        -33.00218 -33.00026 -32.92941 -32.82484 -32.75569
                          31        32        33        34        35
     Eigenvalues --    -0.09502  -0.09793  -0.10063  -0.10272  -0.10383
           R1           1.09989   1.10179   1.10392   1.10664   1.10853
           R2           1.09989   1.10179   1.10392   1.10664   1.10853
           R3           1.09989   1.10179   1.10392   1.10665   1.10853
           R4           2.00000   1.95000   1.90000   1.85000   1.80000
           R5           2.55181   2.64539   2.72589   2.79433   2.85501
           R6           2.45807   2.44357   2.42423   2.40240   2.37680
           R7           2.45807   2.44357   2.42423   2.40240   2.37680
           R8           2.45807   2.44357   2.42423   2.40240   2.37680
           A1         116.50717 115.21220 113.97485 112.76165 111.64027
           A2         116.50719 115.21209 113.97489 112.76144 111.64025
           A3          79.09440  77.16440  75.52933  74.06200  72.79601
           A4         116.50719 115.21204 113.97491 112.76131 111.64023
           A5          79.09441  77.16436  75.52929  74.06204  72.79607
           A6          79.09442  77.16427  75.52923  74.06213  72.79625
           A7          53.03011  51.08443  49.36653  47.77084  46.33897
           A8          53.03012  51.08440  49.36653  47.77084  46.33897
           A9          53.03013  51.08436  49.36653  47.77082  46.33897
           A10         44.73100  44.75739  44.89665  45.11276  45.39166
           A11         44.73100  44.75735  44.89666  45.11270  45.39165
           A12         44.73101  44.75734  44.89666  45.11267  45.39165
           D1        -108.14340-111.04594-113.40361-115.43651-117.12579
           D2         108.14339 111.04596 113.40363 115.43643 117.12577
           D3        -180.00000 179.99998 179.99996-179.99993-179.99990
           D4         108.14341 111.04592 113.40360 115.43652 117.12579
           D5        -108.14338-111.04597-113.40364-115.43636-117.12576
           D6         180.00000-179.99998-179.99994 179.99992 179.99986
           D7        -108.14340-111.04590-113.40362-115.43642-117.12577
           D8         108.14339 111.04594 113.40364 115.43634 117.12577
           D9        -180.00000 180.00000 179.99998-179.99999-179.99996
           D10         32.72939  32.73283  32.75136  32.78004  32.81760
           D11        -32.72939 -32.73287 -32.75134 -32.78016 -32.81761
           D12        -32.72939 -32.73284 -32.75137 -32.78003 -32.81760
           D13         32.72939  32.73290  32.75133  32.78024  32.81762
           D14         32.72938  32.73290  32.75135  32.78016  32.81761
           D15        -32.72938 -32.73291 -32.75133 -32.78025 -32.81762
                          36        37        38        39        40
     Eigenvalues --    -0.10349  -0.10121  -0.09639  -0.08834  -0.07623
           R1           1.11107   1.11398   1.11781   1.12069   1.12467
           R2           1.11107   1.11398   1.11781   1.12069   1.12467
           R3           1.11106   1.11398   1.11781   1.12069   1.12467
           R4           1.75000   1.70000   1.65000   1.60000   1.55000
           R5           2.90905   2.95745   3.00415   3.04553   3.08327
           R6           2.35139   2.32494   2.30006   2.27209   2.24567
           R7           2.35139   2.32494   2.30006   2.27209   2.24567
           R8           2.35138   2.32494   2.30006   2.27209   2.24567
           A1         110.45256 109.27958 107.96464 106.77184 105.45542
           A2         110.45301 109.27967 107.96411 106.77172 105.45549
           A3          71.52935  70.33800  69.06093  67.94825  66.76198
           A4         110.45327 109.27972 107.96383 106.77165 105.45553
           A5          71.52932  70.33792  69.06086  67.94813  66.76184
           A6          71.52924  70.33774  69.06062  67.94782  66.76150
           A7          44.90260  43.51689  42.06706  40.74422  39.36249
           A8          44.90268  43.51691  42.06695  40.74420  39.36250
           A9          44.90282  43.51692  42.06684  40.74416  39.36250
           A10         45.67629  46.00288  46.29328  46.64557  46.97324
           A11         45.67644  46.00290  46.29311  46.64553  46.97326
           A12         45.67652  46.00292  46.29301  46.64551  46.97327
           D1        -118.75555-120.23307-121.75750-123.03570-124.34824
           D2         118.75560 120.23311 121.75734 123.03569 124.34829
           D3         179.99985 179.99987 179.99995 179.99984 179.99978
           D4         118.75562 120.23308 121.75740 123.03568 124.34825
           D5        -118.75569-120.23313-121.75726-123.03567-124.34832
           D6        -179.99976-179.99982-180.00000-179.99979-179.99969
           D7        -118.75578-120.23313-121.75715-123.03564-124.34830
           D8         118.75580 120.23314 121.75717 123.03563 124.34832
           D9         179.99991 179.99994 180.00005 179.99994 179.99990
           D10         32.85639  32.90084  32.94055  32.98982  33.03600
           D11        -32.85619 -32.90079 -32.94082 -32.98987 -33.03595
           D12        -32.85635 -32.90083 -32.94061 -32.98983 -33.03600
           D13         32.85604  32.90075  32.94097  32.98990  33.03592
           D14         32.85609  32.90078  32.94092  32.98990  33.03595
           D15        -32.85598 -32.90075 -32.94102 -32.98993 -33.03592
                          41
     Eigenvalues --    -0.05911
           R1           1.12910
           R2           1.12910
           R3           1.12910
           R4           1.50000
           R5           3.11954
           R6           2.21957
           R7           2.21957
           R8           2.21957
           A1         104.07376
           A2         104.07389
           A3          65.55733
           A4         104.07397
           A5          65.55722
           A6          65.55694
           A7          37.96923
           A8          37.96921
           A9          37.96920
           A10         47.28948
           A11         47.28951
           A12         47.28954
           D1        -125.62895
           D2         125.62909
           D3         179.99984
           D4         125.62893
           D5        -125.62917
           D6        -179.99979
           D7        -125.62905
           D8         125.62914
           D9         179.99995
           D10         33.08093
           D11        -33.08081
           D12        -33.08095
           D13         33.08075
           D14         33.08086
           D15        -33.08078
 Largest change from initial coordinates is atom    5       2.650 Angstoms.
 Leave Link  103 at Thu Mar 16 12:17:01 2017, MaxMem=   134217728 cpu:         0.0
 (Enter /n/sw/g09_D.01/g09/l202.exe)
                          Input orientation:                          
 ---------------------------------------------------------------------
 Center     Atomic      Atomic             Coordinates (Angstroms)
 Number     Number       Type             X           Y           Z
 ---------------------------------------------------------------------
      1          6           0        0.108303    0.196597   -0.454426
      2          1           0        0.968738    0.207861    0.276598
      3          1           0       -0.725972    0.722518    0.095356
      4          1           0       -0.217353   -0.884253   -0.478548
      5         17           0        0.428827    0.778427   -1.799324
      6         17           0       -0.558291   -1.013438    2.342539
 ---------------------------------------------------------------------
                    Distance matrix (angstroms):
                    1          2          3          4          5
     1  C    0.000000
     2  H    1.129102   0.000000
     3  H    1.129102   1.780383   0.000000
     4  H    1.129101   1.780384   1.780385   0.000000
     5  Cl   1.500004   2.219572   2.219572   2.219572   0.000000
     6  Cl   3.119543   2.844556   2.844554   2.844548   4.619546
                    6
     6  Cl   0.000000
 Stoichiometry    CH3Cl2(1-)
 Framework group  C1[X(CH3Cl2)]
 Deg. of freedom    12
 Full point group                 C1      NOp   1
 RotChk:  IX=1 Diff= 2.72D-09
 Largest Abelian subgroup         C1      NOp   1
 Largest concise Abelian subgroup C1      NOp   1
                         Standard orientation:                         
 ---------------------------------------------------------------------
 Center     Atomic      Atomic             Coordinates (Angstroms)
 Number     Number       Type             X           Y           Z
 ---------------------------------------------------------------------
      1          6           0       -0.672879    0.000002   -0.000001
      2          1           0       -0.205675    0.324276   -0.975418
      3          1           0       -0.205674    0.682605    0.768533
      4          1           0       -0.205670   -1.006868    0.206878
      5         17           0       -2.172882   -0.000001    0.000001
      6         17           0        2.446664   -0.000001    0.000000
 ---------------------------------------------------------------------
 Rotational constants (GHZ):    158.1993032      1.3244339      1.3244338
 Leave Link  202 at Thu Mar 16 12:17:01 2017, MaxMem=   134217728 cpu:         0.0
 (Enter /n/sw/g09_D.01/g09/l601.exe)
 Copying SCF densities to generalized density rwf, IOpCl= 0 IROHF=0.

 **********************************************************************

            Population analysis using the SCF density.

 **********************************************************************

 Orbital symmetries:
       Occupied  (A) (A) (A) (A) (A) (A) (A) (A) (A) (A) (A)
       Virtual   (A) (A) (A) (A)
 The electronic state is 1-A.
 Alpha  occ. eigenvalues --   -1.31417  -0.92943  -0.91377  -0.43821  -0.43821
 Alpha  occ. eigenvalues --   -0.43757  -0.25703  -0.25703  -0.11781  -0.11781
 Alpha  occ. eigenvalues --   -0.11660
 Alpha virt. eigenvalues --    0.22931   0.30017   0.30017   0.34049
          Condensed to atoms (all electrons):
               1          2          3          4          5          6
     1  C    4.283072   0.000000   0.000000   0.000000   0.000000   0.000000
     2  H    0.000000   0.886427   0.000000   0.000000   0.000000   0.000000
     3  H    0.000000   0.000000   0.886426   0.000000   0.000000   0.000000
     4  H    0.000000   0.000000   0.000000   0.886426   0.000000   0.000000
     5  Cl   0.000000   0.000000   0.000000   0.000000   7.064750   0.000000
     6  Cl   0.000000   0.000000   0.000000   0.000000   0.000000   7.992899
 Mulliken charges:
               1
     1  C   -0.283072
     2  H    0.113573
     3  H    0.113574
     4  H    0.113574
     5  Cl  -0.064750
     6  Cl  -0.992899
 Sum of Mulliken charges =  -1.00000
 Mulliken charges with hydrogens summed into heavy atoms:
               1
     1  C    0.057649
     5  Cl  -0.064750
     6  Cl  -0.992899
 Charge=             -1.0000 electrons
 Dipole moment (field-independent basis, Debye):
    X=            -10.1687    Y=              0.0000    Z=              0.0000  Tot=             10.1687
 N-N= 6.536862466691D+01 E-N=-1.072607823625D+02  KE=-1.291939004333D+01
 Leave Link  601 at Thu Mar 16 12:17:01 2017, MaxMem=   134217728 cpu:         0.0
 (Enter /n/sw/g09_D.01/g09/l9999.exe)
 1\1\GINC-ENJ12\Scan\RAM1\ZDO\C1H3Cl2(1-)\ROOT\16-Mar-2017\0\\#p am1 op
 t=modredundant\\MeCl scan\\-1,1\C,0.1083034425,0.1965966785,-0.4544263
 895\H,0.9687380631,0.2078606105,0.2765978014\H,-0.725972489,0.72251767
 29,0.0953564913\H,-0.2173529565,-0.8842528632,-0.4785477653\Cl,0.42882
 69237,0.7784269317,-1.7993238283\Cl,-0.5582908639,-1.0134382704,2.3425
 386404\\Version=EM64L-G09RevD.01\State=1-A\HF=-0.1006498,-0.1009232,-0
 .1012102,-0.1015098,-0.1018204,-0.1021391,-0.102461,-0.1027789,-0.1030
 833,-0.1033619,-0.1035998,-0.1037798,-0.1038826,-0.1038879,-0.1037749,
 -0.1035231,-0.1031131,-0.1025272,-0.1017502,-0.1007702,-0.0995804,-0.0
 981827,-0.0965957,-0.0948572,-0.0930504,-0.0913285,-0.0899751,-0.08947
 46,-0.0903004,-0.092318,-0.0950222,-0.09793,-0.1006263,-0.1027234,-0.1
 038266,-0.1034925,-0.1012135,-0.0963934,-0.0883391,-0.0762305,-0.05911
 01\RMSD=6.091e-09,2.367e-09,2.335e-09,2.546e-09,2.449e-09,2.644e-09,2.
 586e-09,2.168e-09,2.319e-09,2.181e-09,2.076e-09,1.970e-09,1.973e-09,2.
 121e-09,2.154e-09,2.278e-09,1.814e-09,1.513e-09,1.386e-09,9.637e-09,5.
 636e-09,3.094e-09,3.061e-09,2.032e-09,6.236e-09,7.961e-09,7.181e-09,1.
 751e-09,4.365e-09,4.151e-09,2.154e-09,4.685e-09,7.340e-09,2.021e-09,2.
 688e-09,8.648e-09,9.612e-10,6.140e-09,9.531e-09,4.879e-09,9.625e-09\PG
 =C01 [X(C1H3Cl2)]\\@


 WHAT, THEN, IS TIME?  IF NO ONE ASKS ME, I KNOW WHAT IT IS.
 IF I WISH TO EXPLAIN WHAT IT IS TO HIM WHO ASKS ME, I DO NOT KNOW.
                                   -- ST. AUGUSTINE (FIFTH CENTURY)
 Job cpu time:       0 days  0 hours  0 minutes 44.2 seconds.
 File lengths (MBytes):  RWF=      5 Int=      0 D2E=      0 Chk=      3 Scr=      1
 Normal termination of Gaussian 09 at Thu Mar 16 12:17:01 2017.
