 Entering Gaussian System, Link 0=g09
 Input=MeCl_ts_pcm.gjf
 Output=MeCl_ts_pcm.out
 Initial command:
 /n/sw/g09_D.01/g09/l1.exe "/scratch/ekwan_MeCl_ts_pcm/Gau-28440.inp" -scrdir="/scratch/ekwan_MeCl_ts_pcm/"
 Entering Link 1 = /n/sw/g09_D.01/g09/l1.exe PID=     28441.
  
 Copyright (c) 1988,1990,1992,1993,1995,1998,2003,2009,2013,
            Gaussian, Inc.  All Rights Reserved.
  
 This is part of the Gaussian(R) 09 program.  It is based on
 the Gaussian(R) 03 system (copyright 2003, Gaussian, Inc.),
 the Gaussian(R) 98 system (copyright 1998, Gaussian, Inc.),
 the Gaussian(R) 94 system (copyright 1995, Gaussian, Inc.),
 the Gaussian 92(TM) system (copyright 1992, Gaussian, Inc.),
 the Gaussian 90(TM) system (copyright 1990, Gaussian, Inc.),
 the Gaussian 88(TM) system (copyright 1988, Gaussian, Inc.),
 the Gaussian 86(TM) system (copyright 1986, Carnegie Mellon
 University), and the Gaussian 82(TM) system (copyright 1983,
 Carnegie Mellon University). Gaussian is a federally registered
 trademark of Gaussian, Inc.
  
 This software contains proprietary and confidential information,
 including trade secrets, belonging to Gaussian, Inc.
  
 This software is provided under written license and may be
 used, copied, transmitted, or stored only in accord with that
 written license.
  
 The following legend is applicable only to US Government
 contracts under FAR:
  
                    RESTRICTED RIGHTS LEGEND
  
 Use, reproduction and disclosure by the US Government is
 subject to restrictions as set forth in subparagraphs (a)
 and (c) of the Commercial Computer Software - Restricted
 Rights clause in FAR 52.227-19.
  
 Gaussian, Inc.
 340 Quinnipiac St., Bldg. 40, Wallingford CT 06492
  
  
 ---------------------------------------------------------------
 Warning -- This program may not be used in any manner that
 competes with the business of Gaussian, Inc. or will provide
 assistance to any competitor of Gaussian, Inc.  The licensee
 of this program is prohibited from giving any competitor of
 Gaussian, Inc. access to this program.  By using this program,
 the user acknowledges that Gaussian, Inc. is engaged in the
 business of creating and licensing software in the field of
 computational chemistry and represents and warrants to the
 licensee that it is not a competitor of Gaussian, Inc. and that
 it will not use this program in any manner prohibited above.
 ---------------------------------------------------------------
  

 Cite this work as:
 Gaussian 09, Revision D.01,
 M. J. Frisch, G. W. Trucks, H. B. Schlegel, G. E. Scuseria, 
 M. A. Robb, J. R. Cheeseman, G. Scalmani, V. Barone, B. Mennucci, 
 G. A. Petersson, H. Nakatsuji, M. Caricato, X. Li, H. P. Hratchian, 
 A. F. Izmaylov, J. Bloino, G. Zheng, J. L. Sonnenberg, M. Hada, 
 M. Ehara, K. Toyota, R. Fukuda, J. Hasegawa, M. Ishida, T. Nakajima, 
 Y. Honda, O. Kitao, H. Nakai, T. Vreven, J. A. Montgomery, Jr., 
 J. E. Peralta, F. Ogliaro, M. Bearpark, J. J. Heyd, E. Brothers, 
 K. N. Kudin, V. N. Staroverov, T. Keith, R. Kobayashi, J. Normand, 
 K. Raghavachari, A. Rendell, J. C. Burant, S. S. Iyengar, J. Tomasi, 
 M. Cossi, N. Rega, J. M. Millam, M. Klene, J. E. Knox, J. B. Cross, 
 V. Bakken, C. Adamo, J. Jaramillo, R. Gomperts, R. E. Stratmann, 
 O. Yazyev, A. J. Austin, R. Cammi, C. Pomelli, J. W. Ochterski, 
 R. L. Martin, K. Morokuma, V. G. Zakrzewski, G. A. Voth, 
 P. Salvador, J. J. Dannenberg, S. Dapprich, A. D. Daniels, 
 O. Farkas, J. B. Foresman, J. V. Ortiz, J. Cioslowski, 
 and D. J. Fox, Gaussian, Inc., Wallingford CT, 2013.
 
 ******************************************
 Gaussian 09:  EM64L-G09RevD.01 24-Apr-2013
                17-Mar-2017 
 ******************************************
 %mem=1GB
 ----------------------------------------------------------------------
 #p opt=(ts,calcfc,noeigentest) freq=noraman am1 scrf=(pcm,solvent=wate
 r)
 ----------------------------------------------------------------------
 1/5=1,10=4,11=1,14=-1,18=20,26=1,38=1/1,3;
 2/9=110,12=2,17=6,18=5,40=1/2;
 3/5=2,16=1,25=1,41=700000,70=2201,71=2,72=1,140=1/1,2,3;
 4/35=1/1;
 5/5=2,35=1,38=5,53=1/2;
 8/6=4,10=90,11=11/1;
 11/6=1,8=1,9=11,15=111,16=1/1,2,10;
 10/6=1,13=1/2;
 6/7=2,8=2,9=2,10=2,28=1/1;
 7/10=1,18=20,25=1/1,2,3,16;
 1/5=1,10=4,11=1,14=-1,18=20,26=1/3(2);
 2/9=110/2;
 99//99;
 2/9=110/2;
 3/5=2,16=1,25=1,41=700000,70=2205,71=1,72=1,135=20/1,2,3;
 4/5=5,16=3,35=1/1;
 5/5=2,35=1,38=5,53=1/2;
 7//1,2,3,16;
 1/5=1,11=1,14=-1,18=20,26=1/3(-5);
 2/9=110/2;
 6/7=2,8=2,9=2,10=2,19=2,28=1/1;
 99/9=1/99;
 Leave Link    1 at Fri Mar 17 16:16:30 2017, MaxMem=   134217728 cpu:         0.1
 (Enter /n/sw/g09_D.01/g09/l101.exe)
 -------------------
 Title Card Required
 -------------------
 Symbolic Z-matrix:
 Charge = -1 Multiplicity = 1
 C                    -0.00018   0.        0. 
 H                     0.00043  -0.75229  -0.79859 
 H                     0.00044  -0.31546   1.0508 
 H                     0.00044   1.06775  -0.2522 
 Cl                    2.15389  0.        0. 
 Cl                   -2.1539   0.        0. 
 
 Add virtual bond connecting atoms Cl6        and C1         Dist= 4.07D+00.
 Add virtual bond connecting atoms Cl5        and C1         Dist= 4.07D+00.
 NAtoms=      6 NQM=        6 NQMF=       0 NMMI=      0 NMMIF=      0
                NMic=       0 NMicF=      0.
                    Isotopes and Nuclear Properties:
 (Nuclear quadrupole moments (NQMom) in fm**2, nuclear magnetic moments (NMagM)
  in nuclear magnetons)

  Atom         1           2           3           4           5           6
 IAtWgt=          12           1           1           1          35          35
 AtmWgt=  12.0000000   1.0078250   1.0078250   1.0078250  34.9688527  34.9688527
 NucSpn=           0           1           1           1           3           3
 AtZEff=   0.0000000   0.0000000   0.0000000   0.0000000   0.0000000   0.0000000
 NQMom=    0.0000000   0.0000000   0.0000000   0.0000000  -8.1650000  -8.1650000
 NMagM=    0.0000000   2.7928460   2.7928460   2.7928460   0.8218740   0.8218740
 AtZNuc=   6.0000000   1.0000000   1.0000000   1.0000000  17.0000000  17.0000000
 Leave Link  101 at Fri Mar 17 16:16:30 2017, MaxMem=   134217728 cpu:         0.2
 (Enter /n/sw/g09_D.01/g09/l103.exe)

 GradGradGradGradGradGradGradGradGradGradGradGradGradGradGradGradGradGrad
 Berny optimization.
 Initialization pass.
                           ----------------------------
                           !    Initial Parameters    !
                           ! (Angstroms and Degrees)  !
 --------------------------                            --------------------------
 ! Name  Definition              Value          Derivative Info.                !
 --------------------------------------------------------------------------------
 ! R1    R(1,2)                  1.0971         calculate D2E/DX2 analytically  !
 ! R2    R(1,3)                  1.0971         calculate D2E/DX2 analytically  !
 ! R3    R(1,4)                  1.0971         calculate D2E/DX2 analytically  !
 ! R4    R(1,5)                  2.1541         calculate D2E/DX2 analytically  !
 ! R5    R(1,6)                  2.1537         calculate D2E/DX2 analytically  !
 ! A1    A(2,1,3)              119.9996         calculate D2E/DX2 analytically  !
 ! A2    A(2,1,4)              120.0003         calculate D2E/DX2 analytically  !
 ! A3    A(2,1,5)               89.9685         calculate D2E/DX2 analytically  !
 ! A4    A(2,1,6)               90.0312         calculate D2E/DX2 analytically  !
 ! A5    A(3,1,4)              120.0            calculate D2E/DX2 analytically  !
 ! A6    A(3,1,5)               89.9681         calculate D2E/DX2 analytically  !
 ! A7    A(3,1,6)               90.032          calculate D2E/DX2 analytically  !
 ! A8    A(4,1,5)               89.968          calculate D2E/DX2 analytically  !
 ! A9    A(4,1,6)               90.0322         calculate D2E/DX2 analytically  !
 ! A10   L(5,1,6,2,-1)         179.9997         calculate D2E/DX2 analytically  !
 ! A11   L(5,1,6,2,-2)         180.0            calculate D2E/DX2 analytically  !
 ! D1    D(2,1,4,3)           -179.8898         calculate D2E/DX2 analytically  !
 ! D2    D(2,1,5,3)           -119.9997         calculate D2E/DX2 analytically  !
 ! D3    D(2,1,6,3)            119.9997         calculate D2E/DX2 analytically  !
 ! D4    D(2,1,5,4)            120.0003         calculate D2E/DX2 analytically  !
 ! D5    D(2,1,6,4)           -120.0003         calculate D2E/DX2 analytically  !
 ! D6    D(3,1,5,4)           -120.0            calculate D2E/DX2 analytically  !
 ! D7    D(3,1,6,4)            120.0            calculate D2E/DX2 analytically  !
 --------------------------------------------------------------------------------
 Trust Radius=3.00D-01 FncErr=1.00D-07 GrdErr=1.00D-07
 Number of steps in this run=     33 maximum allowed number of steps=    100.
 Search for a saddle point of order  1.
 GradGradGradGradGradGradGradGradGradGradGradGradGradGradGradGradGradGrad

 Leave Link  103 at Fri Mar 17 16:16:30 2017, MaxMem=   134217728 cpu:         0.0
 (Enter /n/sw/g09_D.01/g09/l202.exe)
                          Input orientation:                          
 ---------------------------------------------------------------------
 Center     Atomic      Atomic             Coordinates (Angstroms)
 Number     Number       Type             X           Y           Z
 ---------------------------------------------------------------------
      1          6           0       -0.000176    0.000003    0.000003
      2          1           0        0.000425   -0.752288   -0.798592
      3          1           0        0.000436   -0.315461    1.050801
      4          1           0        0.000439    1.067753   -0.252197
      5         17           0        2.153891   -0.000001   -0.000001
      6         17           0       -2.153905   -0.000001   -0.000001
 ---------------------------------------------------------------------
                    Distance matrix (angstroms):
                    1          2          3          4          5
     1  C    0.000000
     2  H    1.097131   0.000000
     3  H    1.097130   1.900282   0.000000
     4  H    1.097130   1.900289   1.900285   0.000000
     5  Cl   2.154067   2.416837   2.416830   2.416828   0.000000
     6  Cl   2.153729   2.417606   2.417620   2.417623   4.307796
                    6
     6  Cl   0.000000
 This structure is nearly, but not quite of a higher symmetry.
 Consider Symm=Loose if the higher symmetry is desired.
 Stoichiometry    CH3Cl2(1-)
 Framework group  C1[X(CH3Cl2)]
 Deg. of freedom    12
 Full point group                 C1      NOp   1
 Largest Abelian subgroup         C1      NOp   1
 Largest concise Abelian subgroup C1      NOp   1
                         Standard orientation:                         
 ---------------------------------------------------------------------
 Center     Atomic      Atomic             Coordinates (Angstroms)
 Number     Number       Type             X           Y           Z
 ---------------------------------------------------------------------
      1          6           0        0.000003    0.000008    0.000176
      2          1           0       -0.780176   -0.771165    0.017758
      3          1           0        1.058119   -0.289882    0.007189
      4          1           0       -0.277930    1.061022   -0.026246
      5         17           0        0.001257   -0.052044   -2.153262
      6         17           0       -0.001259    0.052043    2.153276
 ---------------------------------------------------------------------
 Rotational constants (GHZ):    138.8655089      1.5489119      1.5489118
 Leave Link  202 at Fri Mar 17 16:16:30 2017, MaxMem=   134217728 cpu:         0.0
 (Enter /n/sw/g09_D.01/g09/l301.exe)
 Standard basis: VSTO-6G (5D, 7F)
 Ernie: Thresh=  0.10000D-02 Tol=  0.10000D-05 Strict=F.
  NNHCO=     0 NNPyr=     0 NCTC=     0               EPep=         0.000000000
    EC=        31.366153347  ECS=         0.473195195   EG=         0.093088288
   EHC=         0.000000000  EAt=       -33.052414446  AtH=         0.613817032
 EPDDG=         0.000000000  ECC=        31.932436829 EAtT=        33.666231478
 There are    15 symmetry adapted cartesian basis functions of A   symmetry.
 There are    15 symmetry adapted basis functions of A   symmetry.
    15 basis functions,    90 primitive gaussians,    15 cartesian basis functions
    11 alpha electrons       11 beta electrons
       nuclear repulsion energy        65.5986683076 Hartrees.
 IExCor=    0 DFT=F Ex=HF Corr=None ExCW=0 ScaHFX=  1.000000
 ScaDFX=  1.000000  1.000000  1.000000  1.000000 ScalE2=  1.000000  1.000000
 IRadAn=      0 IRanWt=     -1 IRanGd=            0 ICorTp=0 IEmpDi=  4
 Integral buffers will be    131072 words long.
 Regular integral format.
 Two-electron integral symmetry is turned off.
 Force inversion solution in PCM.
 ------------------------------------------------------------------------------
 Polarizable Continuum Model (PCM)
 =================================
 Model                : PCM (using non-symmetric T matrix).
 Atomic radii         : UFF (Universal Force Field).
 Polarization charges : Total charges.
 Charge compensation  : None.
 Solution method      : Matrix inversion.
 Cavity type          : Scaled VdW (van der Waals Surface) (Alpha=1.100).
 Cavity algorithm     : GePol (No added spheres)
                        Default sphere list used, NSphG=    6.
                        Lebedev-Laikov grids with approx.  5.0 points / Ang**2.
                        Smoothing algorithm: Karplus/York (Gamma=1.0000).
                        Polarization charges: spherical gaussians, with
                                              point-specific exponents (IZeta= 3).
                        Self-potential: point-specific (ISelfS= 7).
                        Self-field    : sphere-specific E.n sum rule (ISelfD= 2).
 1st derivatives      : Analytical E(r).r(x)/FMM algorithm (CHGder, D1EAlg=3).
                        Cavity 1st derivative terms included.
 2nd derivatives      : Analytical E(r).r(xy)/FMM algorithm (CHGder, D2EAlg=3).
                        Cavity 2nd derivative terms included.
 Solvent              : Water, Eps=  78.355300 Eps(inf)=   1.777849
 ------------------------------------------------------------------------------
 Spheres list:
 ISph  on   Nord     Re0    Alpha      Xe            Ye            Ze
    1   C      1    1.9255  1.100      0.000003      0.000008      0.000176
    2   H      2    1.4430  1.100     -0.780176     -0.771165      0.017758
    3   H      3    1.4430  1.100      1.058119     -0.289882      0.007189
    4   H      4    1.4430  1.100     -0.277930      1.061022     -0.026246
    5  Cl      5    1.9735  1.100      0.001257     -0.052044     -2.153262
    6  Cl      6    1.9735  1.100     -0.001259      0.052043      2.153276
 ------------------------------------------------------------------------------
 GePol: Number of generator spheres                  =       6
 GePol: Total number of spheres                      =       6
 GePol: Number of exposed spheres                    =       6 (100.00%)
 GePol: Number of points                             =     736
 GePol: Average weight of points                     =       0.17
 GePol: Minimum weight of points                     =   0.42D-10
 GePol: Maximum weight of points                     =    0.21616
 GePol: Number of points with low weight             =      29
 GePol: Fraction of low-weight points (<1% of avg)   =       3.94%
 GePol: Cavity surface area                          =    124.248 Ang**2
 GePol: Cavity volume                                =    107.873 Ang**3
 Leave Link  301 at Fri Mar 17 16:16:31 2017, MaxMem=   134217728 cpu:         0.1
 (Enter /n/sw/g09_D.01/g09/l302.exe)
 Do NDO integrals.
 NPDir=0 NMtPBC=     1 NCelOv=     1 NCel=       1 NClECP=     1 NCelD=      1
         NCelK=      1 NCelE2=     1 NClLst=     1 CellRange=     0.0.
 One-electron integrals computed using PRISM.
 NBasis=    15 RedAO= F EigKep=  0.00D+00  NBF=    15
 NBsUse=    15 1.00D-04 EigRej=  0.00D+00 NBFU=    15
 Leave Link  302 at Fri Mar 17 16:16:31 2017, MaxMem=   134217728 cpu:         0.1
 (Enter /n/sw/g09_D.01/g09/l303.exe)
 DipDrv:  MaxL=1.
 Leave Link  303 at Fri Mar 17 16:16:31 2017, MaxMem=   134217728 cpu:         0.0
 (Enter /n/sw/g09_D.01/g09/l401.exe)
 Simple Huckel Guess.
 JPrj=0 DoOrth=F DoCkMO=F.
 Leave Link  401 at Fri Mar 17 16:16:31 2017, MaxMem=   134217728 cpu:         0.1
 (Enter /n/sw/g09_D.01/g09/l502.exe)
 Closed shell SCF:
 Using DIIS extrapolation, IDIIS=  1040.
 Overlap will be assumed to be unity.
 Two-electron integral symmetry not used.
 Keep J ints in memory in canonical form, NReq=3571792.
 IVT=       79028 IEndB=       79028 NGot=   134217728 MDV=   134138140
 LenX=   134138140 LenY=   134137258
 Requested convergence on RMS density matrix=1.00D-08 within 128 cycles.
 Requested convergence on MAX density matrix=1.00D-06.
 Requested convergence on             energy=1.00D-06.
 No special actions if energy rises.
 FoFCou: FMM=F IPFlag=           0 FMFlag=           0 FMFlg1=           0
         NFxFlg=           0 DoJE=F BraDBF=F KetDBF=F FulRan=T
         wScrn=  0.000000 ICntrl=     600 IOpCl=  2 I1Cent=           0 NGrid=           0
         NMat0=    1 NMatS0=     33 NMatT0=    0 NMatD0=    1 NMtDS0=    0 NMtDT0=    0
 Symmetry not used in FoFCou.

 Cycle   1  Pass 1  IDiag  1:
 Inv3:  Mode=1 IEnd=     1625088.
 Iteration    1 A*A^-1 deviation from unit magnitude is 4.55D-15 for      8.
 Iteration    1 A*A^-1 deviation from orthogonality  is 1.65D-15 for    235    128.
 Iteration    1 A^-1*A deviation from unit magnitude is 5.22D-15 for    419.
 Iteration    1 A^-1*A deviation from orthogonality  is 1.40D-15 for    313     36.
 E=-0.175014445105433E-01
 DIIS: error= 6.85D-02 at cycle   1 NSaved=   1.
 NSaved= 1 IEnMin= 1 EnMin=-0.175014445105433E-01 IErMin= 1 ErrMin= 6.85D-02
 ErrMax= 6.85D-02  0.00D+00 EMaxC= 1.00D-01 BMatC= 7.56D-02 BMatP= 7.56D-02
 IDIUse=3 WtCom= 3.15D-01 WtEn= 6.85D-01
 Coeff-Com:  0.100D+01
 Coeff-En:   0.100D+01
 Coeff:      0.100D+01
 GapD=    2.000 DampG=2.000 DampE=0.500 DampFc=1.0000 IDamp=-1.
 RMSDP=2.17D-02 MaxDP=1.31D-01              OVMax= 0.00D+00

 Cycle   2  Pass 1  IDiag  1:
 E=-0.171300127498526     Delta-E=       -0.153798682988 Rises=F Damp=F
 DIIS: error= 1.20D-02 at cycle   2 NSaved=   2.
 NSaved= 2 IEnMin= 2 EnMin=-0.171300127498526     IErMin= 2 ErrMin= 1.20D-02
 ErrMax= 1.20D-02  0.00D+00 EMaxC= 1.00D-01 BMatC= 3.19D-03 BMatP= 7.56D-02
 IDIUse=3 WtCom= 8.80D-01 WtEn= 1.20D-01
 Coeff-Com: -0.246D+00 0.125D+01
 Coeff-En:   0.000D+00 0.100D+01
 Coeff:     -0.216D+00 0.122D+01
 RMSDP=5.71D-03 MaxDP=4.04D-02 DE=-1.54D-01 OVMax= 0.00D+00

 Cycle   3  Pass 1  IDiag  3:
 E=-0.178493632756073     Delta-E=       -0.007193505258 Rises=F Damp=F
 DIIS: error= 1.29D-03 at cycle   3 NSaved=   3.
 NSaved= 3 IEnMin= 3 EnMin=-0.178493632756073     IErMin= 3 ErrMin= 1.29D-03
 ErrMax= 1.29D-03  0.00D+00 EMaxC= 1.00D-01 BMatC= 4.47D-05 BMatP= 3.19D-03
 IDIUse=3 WtCom= 9.87D-01 WtEn= 1.29D-02
 Coeff-Com:  0.102D+00-0.574D+00 0.147D+01
 Coeff-En:   0.000D+00 0.000D+00 0.100D+01
 Coeff:      0.101D+00-0.567D+00 0.147D+01
 Gap=     0.377 Goal=   None    Shift=    0.000
 RMSDP=1.58D-03 MaxDP=8.35D-03 DE=-7.19D-03 OVMax= 1.28D-02

 Cycle   4  Pass 1  IDiag  3:
 E=-0.178751478775624     Delta-E=       -0.000257846020 Rises=F Damp=F
 DIIS: error= 2.33D-04 at cycle   4 NSaved=   4.
 NSaved= 4 IEnMin= 4 EnMin=-0.178751478775624     IErMin= 4 ErrMin= 2.33D-04
 ErrMax= 2.33D-04  0.00D+00 EMaxC= 1.00D-01 BMatC= 2.24D-06 BMatP= 4.47D-05
 IDIUse=3 WtCom= 9.98D-01 WtEn= 2.33D-03
 Coeff-Com: -0.271D-01 0.151D+00-0.551D+00 0.143D+01
 Coeff-En:   0.000D+00 0.000D+00 0.000D+00 0.100D+01
 Coeff:     -0.270D-01 0.151D+00-0.550D+00 0.143D+01
 Gap=     0.378 Goal=   None    Shift=    0.000
 RMSDP=4.57D-04 MaxDP=2.02D-03 DE=-2.58D-04 OVMax= 3.94D-03

 Cycle   5  Pass 1  IDiag  3:
 E=-0.178767727496691     Delta-E=       -0.000016248721 Rises=F Damp=F
 DIIS: error= 6.61D-05 at cycle   5 NSaved=   5.
 NSaved= 5 IEnMin= 5 EnMin=-0.178767727496691     IErMin= 5 ErrMin= 6.61D-05
 ErrMax= 6.61D-05  0.00D+00 EMaxC= 1.00D-01 BMatC= 8.75D-08 BMatP= 2.24D-06
 IDIUse=1 WtCom= 1.00D+00 WtEn= 0.00D+00
 Coeff-Com:  0.875D-02-0.475D-01 0.188D+00-0.666D+00 0.152D+01
 Coeff:      0.875D-02-0.475D-01 0.188D+00-0.666D+00 0.152D+01
 Gap=     0.378 Goal=   None    Shift=    0.000
 RMSDP=9.15D-05 MaxDP=4.39D-04 DE=-1.62D-05 OVMax= 6.41D-04

 Cycle   6  Pass 1  IDiag  3:
 E=-0.178768282157478     Delta-E=       -0.000000554661 Rises=F Damp=F
 DIIS: error= 9.74D-06 at cycle   6 NSaved=   6.
 NSaved= 6 IEnMin= 6 EnMin=-0.178768282157478     IErMin= 6 ErrMin= 9.74D-06
 ErrMax= 9.74D-06  0.00D+00 EMaxC= 1.00D-01 BMatC= 2.67D-09 BMatP= 8.75D-08
 IDIUse=1 WtCom= 1.00D+00 WtEn= 0.00D+00
 Coeff-Com: -0.972D-04-0.891D-04-0.985D-02 0.114D+00-0.439D+00 0.133D+01
 Coeff:     -0.972D-04-0.891D-04-0.985D-02 0.114D+00-0.439D+00 0.133D+01
 Gap=     0.378 Goal=   None    Shift=    0.000
 RMSDP=1.33D-05 MaxDP=5.91D-05 DE=-5.55D-07 OVMax= 8.07D-05

 Cycle   7  Pass 1  IDiag  3:
 E=-0.178768297590523     Delta-E=       -0.000000015433 Rises=F Damp=F
 DIIS: error= 1.37D-06 at cycle   7 NSaved=   7.
 NSaved= 7 IEnMin= 7 EnMin=-0.178768297590523     IErMin= 7 ErrMin= 1.37D-06
 ErrMax= 1.37D-06  0.00D+00 EMaxC= 1.00D-01 BMatC= 7.02D-11 BMatP= 2.67D-09
 IDIUse=1 WtCom= 1.00D+00 WtEn= 0.00D+00
 Coeff-Com: -0.282D-03 0.177D-02-0.312D-02-0.195D-01 0.111D+00-0.522D+00
 Coeff-Com:  0.143D+01
 Coeff:     -0.282D-03 0.177D-02-0.312D-02-0.195D-01 0.111D+00-0.522D+00
 Coeff:      0.143D+01
 Gap=     0.378 Goal=   None    Shift=    0.000
 RMSDP=2.26D-06 MaxDP=1.03D-05 DE=-1.54D-08 OVMax= 1.52D-05

 Cycle   8  Pass 1  IDiag  3:
 E=-0.178768297984789     Delta-E=       -0.000000000394 Rises=F Damp=F
 DIIS: error= 4.52D-07 at cycle   8 NSaved=   8.
 NSaved= 8 IEnMin= 8 EnMin=-0.178768297984789     IErMin= 8 ErrMin= 4.52D-07
 ErrMax= 4.52D-07  0.00D+00 EMaxC= 1.00D-01 BMatC= 2.30D-12 BMatP= 7.02D-11
 IDIUse=1 WtCom= 1.00D+00 WtEn= 0.00D+00
 Coeff-Com:  0.291D-04-0.266D-03-0.631D-03 0.159D-01-0.670D-01 0.281D+00
 Coeff-Com: -0.776D+00 0.155D+01
 Coeff:      0.291D-04-0.266D-03-0.631D-03 0.159D-01-0.670D-01 0.281D+00
 Coeff:     -0.776D+00 0.155D+01
 Gap=     0.378 Goal=   None    Shift=    0.000
 RMSDP=4.45D-07 MaxDP=3.29D-06 DE=-3.94D-10 OVMax= 3.68D-06

 Cycle   9  Pass 1  IDiag  3:
 E=-0.178768297998687     Delta-E=       -0.000000000014 Rises=F Damp=F
 DIIS: error= 4.24D-08 at cycle   9 NSaved=   9.
 NSaved= 9 IEnMin= 9 EnMin=-0.178768297998687     IErMin= 9 ErrMin= 4.24D-08
 ErrMax= 4.24D-08  0.00D+00 EMaxC= 1.00D-01 BMatC= 4.19D-14 BMatP= 2.30D-12
 IDIUse=1 WtCom= 1.00D+00 WtEn= 0.00D+00
 Coeff-Com:  0.140D-05 0.307D-04 0.467D-03-0.646D-02 0.257D-01-0.105D+00
 Coeff-Com:  0.287D+00-0.610D+00 0.141D+01
 Coeff:      0.140D-05 0.307D-04 0.467D-03-0.646D-02 0.257D-01-0.105D+00
 Coeff:      0.287D+00-0.610D+00 0.141D+01
 Gap=     0.378 Goal=   None    Shift=    0.000
 RMSDP=5.90D-08 MaxDP=2.88D-07 DE=-1.39D-11 OVMax= 3.83D-07

 Cycle  10  Pass 1  IDiag  3:
 E=-0.178768297999071     Delta-E=        0.000000000000 Rises=F Damp=F
 DIIS: error= 1.34D-08 at cycle  10 NSaved=  10.
 NSaved=10 IEnMin=10 EnMin=-0.178768297999071     IErMin=10 ErrMin= 1.34D-08
 ErrMax= 1.34D-08  0.00D+00 EMaxC= 1.00D-01 BMatC= 4.01D-15 BMatP= 4.19D-14
 IDIUse=1 WtCom= 1.00D+00 WtEn= 0.00D+00
 Coeff-Com: -0.346D-06-0.480D-05-0.852D-04 0.116D-02-0.462D-02 0.188D-01
 Coeff-Com: -0.514D-01 0.107D+00-0.618D+00 0.155D+01
 Coeff:     -0.346D-06-0.480D-05-0.852D-04 0.116D-02-0.462D-02 0.188D-01
 Coeff:     -0.514D-01 0.107D+00-0.618D+00 0.155D+01
 Gap=     0.378 Goal=   None    Shift=    0.000
 RMSDP=2.64D-08 MaxDP=1.37D-07 DE=-3.84D-13 OVMax= 1.83D-07

 Cycle  11  Pass 1  IDiag  3:
 E=-0.178768297999142     Delta-E=        0.000000000000 Rises=F Damp=F
 DIIS: error= 1.03D-09 at cycle  11 NSaved=  11.
 NSaved=11 IEnMin=11 EnMin=-0.178768297999142     IErMin=11 ErrMin= 1.03D-09
 ErrMax= 1.03D-09  0.00D+00 EMaxC= 1.00D-01 BMatC= 6.24D-17 BMatP= 4.01D-15
 IDIUse=1 WtCom= 1.00D+00 WtEn= 0.00D+00
 Coeff-Com: -0.606D-06 0.455D-05 0.228D-05-0.173D-03 0.776D-03-0.342D-02
 Coeff-Com:  0.945D-02-0.175D-01 0.134D+00-0.425D+00 0.130D+01
 Coeff:     -0.606D-06 0.455D-05 0.228D-05-0.173D-03 0.776D-03-0.342D-02
 Coeff:      0.945D-02-0.175D-01 0.134D+00-0.425D+00 0.130D+01
 Gap=     0.378 Goal=   None    Shift=    0.000
 RMSDP=2.28D-09 MaxDP=1.03D-08 DE=-7.11D-14 OVMax= 1.40D-08

 Cycle  12  Pass 2  IDiag  1:
 Error on total polarization charges =  0.00010
 SCF Done:  E(RAM1) = -0.178768297999     A.U. after   12 cycles
            NFock= 11  Conv=0.23D-08     -V/T= 0.9860
 KE=-1.277156281697D+01 PE=-1.085004965412D+02 EE= 5.549462275261D+01
 Leave Link  502 at Fri Mar 17 16:16:33 2017, MaxMem=   134217728 cpu:         2.5
 (Enter /n/sw/g09_D.01/g09/l801.exe)
 Range of M.O.s used for correlation:     1    15
 NBasis=    15 NAE=    11 NBE=    11 NFC=     0 NFV=     0
 NROrb=     15 NOA=    11 NOB=    11 NVA=     4 NVB=     4
 Leave Link  801 at Fri Mar 17 16:16:33 2017, MaxMem=   134217728 cpu:         0.0
 (Enter /n/sw/g09_D.01/g09/l1101.exe)
 Using compressed storage, NAtomX=     6.
 Will process      7 centers per pass.
 Leave Link 1101 at Fri Mar 17 16:16:33 2017, MaxMem=   134217728 cpu:         0.0
 (Enter /n/sw/g09_D.01/g09/l1102.exe)
 Symmetrizing basis deriv contribution to polar:
 IMax=3 JMax=2 DiffMx= 0.00D+00
 Leave Link 1102 at Fri Mar 17 16:16:33 2017, MaxMem=   134217728 cpu:         0.0
 (Enter /n/sw/g09_D.01/g09/l1110.exe)
 Forming Gx(P) for the SCF density, NAtomX=     6.
 Integral derivatives from FoFJK, PRISM(SPDF).
 Do as many integral derivatives as possible in FoFJK.
 G2DrvN: MDV=     134158685.
 G2DrvN: will do     7 centers at a time, making    1 passes.
 Calling FoFCou, ICntrl=  3107 FMM=F I1Cent=   0 AccDes= 0.00D+00.
 FoFJK:  IHMeth= 8 ICntrl=    3107 DoSepK=F KAlg= 0 I1Cent=   0 FoldK=F
 IRaf=         0 NMat=   1 IRICut=       1 DoRegI=T DoRafI=F ISym2E= 0.
 FoFCou: FMM=F IPFlag=           0 FMFlag=      100000 FMFlg1=           0
         NFxFlg=           0 DoJE=F BraDBF=F KetDBF=F FulRan=T
         wScrn=  0.000000 ICntrl=    3107 IOpCl=  0 I1Cent=           0 NGrid=           0
         NMat0=    1 NMatS0=      1 NMatT0=    0 NMatD0=    1 NMtDS0=    0 NMtDT0=    0
 Symmetry not used in FoFCou.
 NEqPCM:  Using equilibrium solvation (IEInf=0, Eps=  78.3553, EpsInf=   1.7778)
 G2PCM: DoFxE=T DoFxN=T DoGrad=T DoDP/DQ/DG/TGxP=FFFF NFrqRd=   0 IEInf=0 SqF1=F DoCFld=F IF1Alg=4.
 GePol: Maximum number of non-zero 1st derivatives   =     262
 End of G2Drv F.D. properties file   721 does not exist.
 End of G2Drv F.D. properties file   722 does not exist.
 End of G2Drv F.D. properties file   788 does not exist.
 Leave Link 1110 at Fri Mar 17 16:16:36 2017, MaxMem=   134217728 cpu:         2.8
 (Enter /n/sw/g09_D.01/g09/l1002.exe)
 Minotr:  Closed shell wavefunction.
          IDoAtm=111111
 NEqPCM:  Using equilibrium solvation (IEInf=0, Eps=  78.3553, EpsInf=   1.7778)
          Direct CPHF calculation.
          Differentiating once with respect to nuclear coordinates.
          Electric field/nuclear overlap derivatives assumed to be zero.
          Requested convergence is 1.0D-08 RMS, and 1.0D-07 maximum.
          NewPWx=T KeepS1=F KeepF1=F KeepIn=T MapXYZ=F SortEE=F KeepMc=T.
          MDV=     134158758 using IRadAn=       2.
 Keep J ints in memory in canonical form, NReq=2746973.
 FoFCou: FMM=F IPFlag=           0 FMFlag=           0 FMFlg1=           0
         NFxFlg=           0 DoJE=F BraDBF=F KetDBF=F FulRan=T
         wScrn=  0.000000 ICntrl=     600 IOpCl=  2 I1Cent=           0 NGrid=           0
         NMat0=    1 NMatS0=     33 NMatT0=    0 NMatD0=    1 NMtDS0=    0 NMtDT0=    0
 Symmetry not used in FoFCou.
          Solving linear equations separately, MaxMat=       0.
          There are    21 degrees of freedom in the 1st order CPHF.  IDoFFX=5 NUNeed=    21.
 LinEq1:  Iter=  0 NonCon=    18 RMS=5.64D-02 Max=3.08D-01 NDo=    18
 AX will form    21 AO Fock derivatives at one time.
 LinEq1:  Iter=  1 NonCon=    18 RMS=5.37D-03 Max=3.22D-02 NDo=    21
 LinEq1:  Iter=  2 NonCon=    18 RMS=3.97D-04 Max=1.69D-03 NDo=    21
 LinEq1:  Iter=  3 NonCon=    18 RMS=1.56D-05 Max=8.19D-05 NDo=    21
 LinEq1:  Iter=  4 NonCon=    18 RMS=1.55D-06 Max=6.74D-06 NDo=    21
 LinEq1:  Iter=  5 NonCon=    18 RMS=1.51D-07 Max=6.23D-07 NDo=    21
 LinEq1:  Iter=  6 NonCon=     5 RMS=1.88D-08 Max=7.94D-08 NDo=    21
 LinEq1:  Iter=  7 NonCon=     0 RMS=8.31D-10 Max=3.36D-09 NDo=    21
 Linear equations converged to 1.000D-08 1.000D-07 after     7 iterations.
 End of Minotr F.D. properties file   721 does not exist.
 End of Minotr F.D. properties file   722 does not exist.
 End of Minotr F.D. properties file   788 does not exist.
 Leave Link 1002 at Fri Mar 17 16:16:37 2017, MaxMem=   134217728 cpu:         0.5
 (Enter /n/sw/g09_D.01/g09/l601.exe)
 Copying SCF densities to generalized density rwf, IOpCl= 0 IROHF=0.

 **********************************************************************

            Population analysis using the SCF density.

 **********************************************************************

 Orbital symmetries:
       Occupied  (A) (A) (A) (A) (A) (A) (A) (A) (A) (A) (A)
       Virtual   (A) (A) (A) (A)
 The electronic state is 1-A.
 Alpha  occ. eigenvalues --   -1.23370  -1.22454  -1.03513  -0.53559  -0.53556
 Alpha  occ. eigenvalues --   -0.47443  -0.38684  -0.38682  -0.37357  -0.37354
 Alpha  occ. eigenvalues --   -0.33303
 Alpha virt. eigenvalues --    0.04466   0.15202   0.16843   0.16846
          Condensed to atoms (all electrons):
               1          2          3          4          5          6
     1  C    3.895991   0.000000   0.000000   0.000000   0.000000   0.000000
     2  H    0.000000   0.884746   0.000000   0.000000   0.000000   0.000000
     3  H    0.000000   0.000000   0.884815   0.000000   0.000000   0.000000
     4  H    0.000000   0.000000   0.000000   0.884797   0.000000   0.000000
     5  Cl   0.000000   0.000000   0.000000   0.000000   7.725144   0.000000
     6  Cl   0.000000   0.000000   0.000000   0.000000   0.000000   7.724507
 Mulliken charges:
               1
     1  C    0.104009
     2  H    0.115254
     3  H    0.115185
     4  H    0.115203
     5  Cl  -0.725144
     6  Cl  -0.724507
 Sum of Mulliken charges =  -1.00000
 Mulliken charges with hydrogens summed into heavy atoms:
               1
     1  C    0.449651
     5  Cl  -0.725144
     6  Cl  -0.724507
 APT charges:
               1
     1  C    0.104009
     2  H    0.115254
     3  H    0.115185
     4  H    0.115203
     5  Cl  -0.725144
     6  Cl  -0.724507
 Sum of APT charges =  -1.00000
 APT charges with hydrogens summed into heavy atoms:
               1
     1  C    0.449651
     5  Cl  -0.725144
     6  Cl  -0.724507
 Charge=             -1.0000 electrons
 Dipole moment (field-independent basis, Debye):
    X=             -0.0002    Y=              0.0001    Z=              0.0057  Tot=              0.0057
 N-N= 6.559866830758D+01 E-N=-1.085004965377D+02  KE=-1.277156281697D+01
  Exact polarizability:   0.000   0.000   0.000   0.000   0.000   0.000
 Approx polarizability:   4.661  -0.001   4.686  -0.025   1.049  48.103
 Leave Link  601 at Fri Mar 17 16:16:37 2017, MaxMem=   134217728 cpu:         0.0
 (Enter /n/sw/g09_D.01/g09/l701.exe)
 Compute integral second derivatives.
 ... and contract with generalized density number  0.
 D2PCM: PCM CHGder 2nd derivatives, FixD1E=F FixD2E=F DoIter=F DoCFld=F I1PDM=0
 GePol: Maximum number of non-zero 2nd derivatives   =     262
 Leave Link  701 at Fri Mar 17 16:16:40 2017, MaxMem=   134217728 cpu:         2.7
 (Enter /n/sw/g09_D.01/g09/l702.exe)
 L702 exits ... SP integral derivatives will be done elsewhere.
 Leave Link  702 at Fri Mar 17 16:16:40 2017, MaxMem=   134217728 cpu:         0.0
 (Enter /n/sw/g09_D.01/g09/l703.exe)
 Compute integral second derivatives, UseDBF=F ICtDFT=           0.
 Integral derivatives from FoFJK, PRISM(SPDF).
 Calling FoFJK, ICntrl=    100147 FMM=F ISym2X=0 I1Cent= 0 IOpClX= 0 NMat=1 NMatS=1 NMatT=0.
 FoFJK:  IHMeth= 8 ICntrl=  100147 DoSepK=F KAlg= 0 I1Cent=   0 FoldK=F
 IRaf=         0 NMat=   1 IRICut=       1 DoRegI=T DoRafI=F ISym2E= 0.
 FoFCou: FMM=F IPFlag=           0 FMFlag=      100000 FMFlg1=         800
         NFxFlg=           0 DoJE=F BraDBF=F KetDBF=F FulRan=T
         wScrn=  0.000000 ICntrl=  100147 IOpCl=  0 I1Cent=           0 NGrid=           0
         NMat0=    1 NMatS0=      1 NMatT0=    0 NMatD0=    1 NMtDS0=    0 NMtDT0=    0
 Symmetry not used in FoFCou.
 Leave Link  703 at Fri Mar 17 16:16:40 2017, MaxMem=   134217728 cpu:         0.0
 (Enter /n/sw/g09_D.01/g09/l716.exe)
 Dipole        =-6.19391320D-05 2.81270470D-05 2.26036149D-03
 Polarizability= 0.00000000D+00 0.00000000D+00 0.00000000D+00
                 0.00000000D+00 0.00000000D+00 0.00000000D+00
 ***** Axes restored to original set *****
 -------------------------------------------------------------------
 Center     Atomic                   Forces (Hartrees/Bohr)
 Number     Number              X              Y              Z
 -------------------------------------------------------------------
      1        6          -0.000049418   -0.000010503   -0.000002076
      2        1          -0.000024394   -0.000580162   -0.000623851
      3        1          -0.000033608   -0.000256106    0.000789168
      4        1          -0.000061782    0.000821871   -0.000208254
      5       17           0.001028651   -0.000010162    0.000024229
      6       17          -0.000859450    0.000035062    0.000020784
 -------------------------------------------------------------------
 Cartesian Forces:  Max     0.001028651 RMS     0.000467869
 Force constants in Cartesian coordinates: 
                1             2             3             4             5 
      1 -0.158080D+00
      2  0.168328D-03  0.569959D+00
      3 -0.640035D-04  0.989365D-04  0.569782D+00
      4  0.506499D-03  0.147665D-03  0.112484D-03  0.409110D-01
      5  0.153030D-03 -0.174893D+00 -0.140159D+00 -0.534520D-04  0.189081D+00
      6  0.126904D-03 -0.140148D+00 -0.191651D+00 -0.895748D-04  0.159149D+00
      7  0.301021D-03  0.515645D-04 -0.118430D-03  0.329204D-02 -0.258720D-05
      8  0.555916D-04 -0.660480D-01  0.773620D-01 -0.332710D-05  0.651052D-02
      9 -0.150437D-03  0.773193D-01 -0.300426D+00 -0.420819D-05  0.153055D-02
     10  0.341512D-03 -0.112457D-03  0.423953D-04  0.329028D-02  0.628546D-05
     11 -0.131795D-03 -0.308777D+00  0.628009D-01 -0.529404D-05 -0.215279D-01
     12  0.876959D-05  0.628466D-01 -0.576508D-01 -0.283994D-05 -0.177117D-01
     13  0.784493D-01 -0.194370D-03  0.152898D-04 -0.241234D-01 -0.326652D-02
     14 -0.163445D-03 -0.101257D-01 -0.190255D-04 -0.664365D-02  0.415369D-03
     15  0.833116D-04 -0.462892D-04 -0.993339D-02 -0.700429D-02 -0.144336D-02
     16  0.784821D-01 -0.607189D-04  0.122632D-04 -0.238764D-01  0.316323D-02
     17 -0.818080D-04 -0.101155D-01 -0.836304D-04  0.655808D-02  0.413843D-03
     18 -0.454240D-05 -0.701660D-04 -0.101200D-01  0.698842D-02 -0.136519D-02
                6             7             8             9            10 
      6  0.208126D+00
      7  0.744138D-05  0.412026D-01
      8 -0.160377D-01  0.685225D-05  0.656681D-01
      9 -0.224935D-01  0.128711D-03 -0.878921D-01  0.332021D+00
     10 -0.577223D-05  0.329670D-02  0.575739D-05  0.153622D-05  0.409236D-01
     11 -0.141022D-03 -0.210340D-05 -0.896592D-02  0.740869D-02  0.865017D-04
     12  0.554232D-02  0.315980D-05  0.249490D-01 -0.703160D-02 -0.142191D-03
     13 -0.342707D-02 -0.239633D-01 -0.139183D-02  0.451721D-02 -0.238605D-01
     14 -0.147222D-02 -0.279946D-02  0.148850D-02  0.798966D-03  0.938270D-02
     15  0.189634D-03  0.921121D-02  0.785280D-03 -0.102101D-02 -0.219171D-02
     16  0.338808D-02 -0.241291D-01  0.132694D-02 -0.449281D-02 -0.239917D-01
     17 -0.134954D-02  0.274575D-02  0.134678D-02  0.834568D-03 -0.936877D-02
     18  0.286537D-03 -0.923209D-02  0.833445D-03 -0.104915D-02  0.229574D-02
               11            12            13            14            15 
     11  0.341218D+00
     12 -0.713854D-01  0.559765D-01
     13  0.460960D-02 -0.104357D-02  0.414239D-01
     14 -0.867809D-03  0.703311D-03  0.190145D-03  0.790519D-02
     15  0.714608D-03  0.156266D-02 -0.722899D-04 -0.105696D-04  0.802394D-02
     16 -0.455692D-02  0.117668D-02 -0.479261D-01  0.337247D-04 -0.262337D-04
     17 -0.107992D-02  0.598079D-03  0.529825D-04  0.118439D-02  0.000000D+00
     18  0.602185D-03  0.160101D-02  0.104303D-04  0.000000D+00  0.117814D-02
               16            17            18 
     16  0.414412D-01
     17  0.937658D-04  0.825042D-02
     18 -0.579650D-04  0.000000D+00  0.810342D-02
 FormGI is forming the generalized inverse of G from B-inverse, IUseBI=4.
 Force constants in internal coordinates: 
                1             2             3             4             5 
      1  0.358037D+00
      2  0.126033D-01  0.358410D+00
      3  0.126017D-01  0.126119D-01  0.358086D+00
      4  0.472115D-02  0.471327D-02  0.471268D-02  0.414239D-01
      5  0.464824D-02  0.469807D-02  0.471883D-02  0.479261D-01  0.414412D-01
      6  0.260801D-02  0.260655D-02 -0.521344D-02 -0.541048D-05  0.000000D+00
      7  0.260317D-02 -0.521239D-02  0.260304D-02  0.359777D-04 -0.466488D-04
      8  0.133007D-02 -0.743294D-03 -0.590477D-03  0.848510D-02 -0.819939D-02
      9  0.119115D-02 -0.731570D-03 -0.690344D-03 -0.834839D-02  0.816006D-02
     10 -0.521113D-02  0.260587D-02  0.261044D-02  0.172686D-04 -0.201981D-05
     11 -0.656083D-03  0.149681D-02 -0.687227D-03  0.837687D-02 -0.846113D-02
     12 -0.606180D-03  0.148058D-02 -0.664143D-03 -0.822069D-02  0.832879D-02
     13 -0.649457D-03 -0.736545D-03  0.129677D-02  0.800173D-02 -0.821503D-02
     14 -0.609475D-03 -0.765977D-03  0.133540D-02 -0.829463D-02  0.838670D-02
     15  0.252122D-02 -0.147486D-02 -0.128082D-02  0.136714D-03 -0.393343D-04
     16 -0.193713D-05  0.258647D-02 -0.229987D-02  0.259276D-03 -0.175525D-03
     17 -0.312488D-04 -0.224812D-04 -0.162080D-04 -0.287102D-01  0.287239D-01
     18 -0.260736D-02 -0.260584D-02  0.521221D-02  0.215759D-04 -0.167816D-04
     19  0.260857D-02  0.260726D-02 -0.521473D-02 -0.212558D-04  0.165774D-04
     20  0.260251D-02 -0.521097D-02  0.260236D-02  0.201336D-04 -0.308756D-04
     21 -0.260374D-02  0.521383D-02 -0.260365D-02 -0.200204D-04  0.307852D-04
     22  0.520987D-02 -0.260514D-02 -0.260985D-02 -0.144223D-05 -0.140940D-04
     23 -0.521231D-02  0.260657D-02  0.261109D-02  0.123538D-05  0.142078D-04
                6             7             8             9            10 
      6  0.631047D-02
      7 -0.315379D-02  0.630180D-02
      8  0.403386D-03  0.420728D-03  0.355118D-01
      9  0.372202D-03  0.386500D-03 -0.226711D-01  0.354686D-01
     10 -0.315670D-02 -0.314796D-02 -0.813127D-03 -0.769662D-03  0.630468D-02
     11  0.410079D-03 -0.823265D-03 -0.148984D-01  0.853622D-02  0.424353D-03
     12  0.389784D-03 -0.781309D-03  0.848077D-02 -0.149144D-01  0.380435D-03
     13 -0.820523D-03  0.431217D-03 -0.149022D-01  0.843795D-02  0.400233D-03
     14 -0.754905D-03  0.366134D-03  0.847910D-02 -0.148573D-01  0.377739D-03
     15  0.775588D-03  0.807228D-03  0.128408D-01  0.127975D-01 -0.158279D-02
     16  0.137135D-02 -0.138673D-02  0.307520D-05  0.236481D-04  0.154914D-04
     17  0.112051D-05 -0.296266D-04 -0.659517D-02  0.657778D-02 -0.969492D-05
     18 -0.630969D-02  0.315341D-02 -0.383535D-03 -0.385809D-03  0.315632D-02
     19  0.631120D-02 -0.315416D-02  0.389692D-03  0.392060D-03 -0.315707D-02
     20 -0.315339D-02  0.630099D-02  0.400797D-03  0.400256D-03 -0.314756D-02
     21  0.315415D-02 -0.630253D-02 -0.406971D-03 -0.406506D-03  0.314834D-02
     22  0.315630D-02  0.314758D-02  0.784332D-03  0.786065D-03 -0.630389D-02
     23 -0.315705D-02 -0.314837D-02 -0.796663D-03 -0.798566D-03  0.630542D-02
               11            12            13            14            15 
     11  0.355916D-01
     12 -0.228091D-01  0.356631D-01
     13 -0.148884D-01  0.856361D-02  0.354703D-01
     14  0.846821D-02 -0.149839D-01 -0.226813D-01  0.355751D-01
     15 -0.636220D-02 -0.643368D-02 -0.646426D-02 -0.637815D-02  0.256383D-01
     16  0.110867D-01  0.111281D-01 -0.110353D-01 -0.112061D-01  0.267233D-04
     17 -0.670297D-02  0.665596D-02 -0.655765D-02  0.662205D-02 -0.173902D-04
     18 -0.390331D-03 -0.403464D-03  0.791964D-03  0.771153D-03 -0.769344D-03
     19  0.396556D-03  0.409423D-03 -0.804265D-03 -0.783442D-03  0.781752D-03
     20 -0.794642D-03 -0.797688D-03  0.411580D-03  0.379703D-03  0.801053D-03
     21  0.806962D-03  0.809975D-03 -0.417712D-03 -0.385754D-03 -0.813476D-03
     22 -0.404311D-03 -0.394223D-03 -0.380383D-03 -0.391449D-03  0.157040D-02
     23  0.410405D-03  0.400552D-03  0.386553D-03  0.397687D-03 -0.159523D-02
               16            17            18            19            20 
     16  0.256668D-01
     17 -0.643272D-04  0.229275D-01
     18 -0.136073D-02 -0.138689D-04  0.630896D-02
     19  0.138197D-02  0.137754D-04 -0.631045D-02  0.631197D-02
     20 -0.137616D-02 -0.169874D-04  0.315302D-02 -0.315377D-02  0.630021D-02
     21  0.139740D-02  0.169710D-04 -0.315377D-02  0.315453D-02 -0.630174D-02
     22 -0.154252D-04 -0.311848D-05 -0.315594D-02  0.315668D-02  0.314719D-02
     23  0.154343D-04  0.319557D-05  0.315668D-02 -0.315744D-02 -0.314797D-02
               21            22            23 
     21  0.630329D-02
     22 -0.314797D-02  0.630313D-02
     23  0.314876D-02 -0.630465D-02  0.630620D-02
 Leave Link  716 at Fri Mar 17 16:16:40 2017, MaxMem=   134217728 cpu:         0.0
 (Enter /n/sw/g09_D.01/g09/l103.exe)

 GradGradGradGradGradGradGradGradGradGradGradGradGradGradGradGradGradGrad
 Berny optimization.
 Red2BG is reusing G-inverse.
 Internal  Forces:  Max     0.001028651 RMS     0.000413981
 Search for a saddle point.
 Step number   1 out of a maximum of   33
 All quantities printed in internal units (Hartrees-Bohrs-Radians)
 Swapping is turned off.
 Second derivative matrix not updated -- analytic derivatives used.
 ITU=  0
     Eigenvalues ---   -0.03983   0.02675   0.02683   0.04579   0.04587
     Eigenvalues ---    0.06773   0.08151   0.08182   0.08892   0.34610
     Eigenvalues ---    0.34634   0.38384
 Eigenvectors required to have negative eigenvalues:
                          R4        R5        D1        A6        A9
   1                   -0.58740   0.58739  -0.45454   0.13225  -0.13211
                          A3        A4        A7        A8        A11
   1                    0.13202  -0.13094  -0.13060   0.12938   0.00253
 RFO step:  Lambda0=1.108043490D-07 Lambda=-2.46863165D-05.
 Linear search not attempted -- option 19 set.
 Iteration  1 RMS(Cart)=  0.00320558 RMS(Int)=  0.00000121
 Iteration  2 RMS(Cart)=  0.00000188 RMS(Int)=  0.00000040
 Iteration  3 RMS(Cart)=  0.00000000 RMS(Int)=  0.00000040
 ITry= 1 IFail=0 DXMaxC= 1.06D-02 DCOld= 1.00D+10 DXMaxT= 3.00D-01 DXLimC= 3.00D+00 Rises=F
 Variable       Old X    -DE/DX   Delta X   Delta X   Delta X     New X
                                 (Linear)    (Quad)   (Total)
    R1        2.07328   0.00085   0.00000   0.00198   0.00198   2.07526
    R2        2.07328   0.00083   0.00000   0.00190   0.00190   2.07518
    R3        2.07328   0.00085   0.00000   0.00196   0.00196   2.07523
    R4        4.07060   0.00103   0.00000   0.00995   0.00995   4.08054
    R5        4.06996   0.00086   0.00000   0.01056   0.01056   4.08052
    A1        2.09439   0.00000   0.00000  -0.00013  -0.00013   2.09426
    A2        2.09440   0.00000   0.00000  -0.00026  -0.00026   2.09414
    A3        1.57025   0.00002   0.00000   0.00095   0.00095   1.57120
    A4        1.57134   0.00003   0.00000   0.00039   0.00039   1.57173
    A5        2.09440   0.00001   0.00000   0.00040   0.00040   2.09479
    A6        1.57024  -0.00002   0.00000  -0.00005  -0.00005   1.57019
    A7        1.57136  -0.00003   0.00000  -0.00095  -0.00095   1.57041
    A8        1.57024   0.00003   0.00000   0.00076   0.00076   1.57099
    A9        1.57136  -0.00005   0.00000  -0.00110  -0.00110   1.57026
   A10        3.14159   0.00006   0.00000   0.00134   0.00134   3.14293
   A11        3.14159  -0.00001   0.00000  -0.00038  -0.00038   3.14122
    D1       -3.13967  -0.00005   0.00000  -0.00192  -0.00192  -3.14159
    D2       -2.09439   0.00000   0.00000   0.00013   0.00013  -2.09426
    D3        2.09439   0.00000   0.00000  -0.00013  -0.00013   2.09426
    D4        2.09440   0.00000   0.00000  -0.00027  -0.00026   2.09414
    D5       -2.09440   0.00000   0.00000   0.00026   0.00026  -2.09414
    D6       -2.09440  -0.00001   0.00000  -0.00040  -0.00040  -2.09479
    D7        2.09440   0.00001   0.00000   0.00040   0.00040   2.09479
         Item               Value     Threshold  Converged?
 Maximum Force            0.001029     0.000450     NO 
 RMS     Force            0.000414     0.000300     NO 
 Maximum Displacement     0.010623     0.001800     NO 
 RMS     Displacement     0.003206     0.001200     NO 
 Predicted change in Energy=-1.228776D-05
 Lowest energy point so far.  Saving SCF results.
 GradGradGradGradGradGradGradGradGradGradGradGradGradGradGradGradGradGrad

 Leave Link  103 at Fri Mar 17 16:16:40 2017, MaxMem=   134217728 cpu:         0.0
 (Enter /n/sw/g09_D.01/g09/l202.exe)
                          Input orientation:                          
 ---------------------------------------------------------------------
 Center     Atomic      Atomic             Coordinates (Angstroms)
 Number     Number       Type             X           Y           Z
 ---------------------------------------------------------------------
      1          6           0        0.000182   -0.000195   -0.000380
      2          1           0        0.000428   -0.753171   -0.799773
      3          1           0        0.000280   -0.316133    1.051327
      4          1           0       -0.000157    1.068507   -0.253054
      5         17           0        2.159513    0.000362    0.000943
      6         17           0       -2.159135    0.000635    0.000951
 ---------------------------------------------------------------------
                    Distance matrix (angstroms):
                    1          2          3          4          5
     1  C    0.000000
     2  H    1.098181   0.000000
     3  H    1.098137   1.901992   0.000000
     4  H    1.098165   1.901949   1.902272   0.000000
     5  Cl   2.159331   2.422933   2.421934   2.422730   0.000000
     6  Cl   2.159318   2.423447   2.422128   2.421995   4.318648
                    6
     6  Cl   0.000000
 Stoichiometry    CH3Cl2(1-)
 Framework group  C1[X(CH3Cl2)]
 Deg. of freedom    12
 Full point group                 C1      NOp   1
 RotChk:  IX=3 Diff= 2.15D+00
 Largest Abelian subgroup         C1      NOp   1
 Largest concise Abelian subgroup C1      NOp   1
                         Standard orientation:                         
 ---------------------------------------------------------------------
 Center     Atomic      Atomic             Coordinates (Angstroms)
 Number     Number       Type             X           Y           Z
 ---------------------------------------------------------------------
      1          6           0        0.000005    0.000394    0.001106
      2          1           0       -0.000293    0.075004    1.096750
      3          1           0       -0.000112   -0.985793   -0.481947
      4          1           0        0.000416    0.912091   -0.611084
      5         17           0       -2.159325   -0.000102   -0.000312
      6         17           0        2.159323   -0.000114   -0.000297
 ---------------------------------------------------------------------
 Rotational constants (GHZ):    138.6038335      1.5411660      1.5411625
 Leave Link  202 at Fri Mar 17 16:16:40 2017, MaxMem=   134217728 cpu:         0.0
 (Enter /n/sw/g09_D.01/g09/l301.exe)
 Standard basis: VSTO-6G (5D, 7F)
 Ernie: Thresh=  0.10000D-02 Tol=  0.10000D-05 Strict=F.
  NNHCO=     0 NNPyr=     0 NCTC=     0               EPep=         0.000000000
    EC=        31.309287644  ECS=         0.470553673   EG=         0.092174067
   EHC=         0.000000000  EAt=       -33.052414446  AtH=         0.613817032
 EPDDG=         0.000000000  ECC=        31.872015384 EAtT=        33.666231478
 There are    15 symmetry adapted cartesian basis functions of A   symmetry.
 There are    15 symmetry adapted basis functions of A   symmetry.
    15 basis functions,    90 primitive gaussians,    15 cartesian basis functions
    11 alpha electrons       11 beta electrons
       nuclear repulsion energy        65.5382468624 Hartrees.
 IExCor=    0 DFT=F Ex=HF Corr=None ExCW=0 ScaHFX=  1.000000
 ScaDFX=  1.000000  1.000000  1.000000  1.000000 ScalE2=  1.000000  1.000000
 IRadAn=      0 IRanWt=     -1 IRanGd=            0 ICorTp=0 IEmpDi=  4
 Integral buffers will be    131072 words long.
 Regular integral format.
 Two-electron integral symmetry is turned off.
 ------------------------------------------------------------------------------
 Polarizable Continuum Model (PCM)
 =================================
 Model                : PCM (using non-symmetric T matrix).
 Atomic radii         : UFF (Universal Force Field).
 Polarization charges : Total charges.
 Charge compensation  : None.
 Solution method      : Matrix inversion.
 Cavity type          : Scaled VdW (van der Waals Surface) (Alpha=1.100).
 Cavity algorithm     : GePol (No added spheres)
                        Default sphere list used, NSphG=    6.
                        Lebedev-Laikov grids with approx.  5.0 points / Ang**2.
                        Smoothing algorithm: Karplus/York (Gamma=1.0000).
                        Polarization charges: spherical gaussians, with
                                              point-specific exponents (IZeta= 3).
                        Self-potential: point-specific (ISelfS= 7).
                        Self-field    : sphere-specific E.n sum rule (ISelfD= 2).
 1st derivatives      : Analytical E(r).r(x)/FMM algorithm (CHGder, D1EAlg=3).
                        Cavity 1st derivative terms included.
 Solvent              : Water, Eps=  78.355300 Eps(inf)=   1.777849
 ------------------------------------------------------------------------------
 Spheres list:
 ISph  on   Nord     Re0    Alpha      Xe            Ye            Ze
    1   C      1    1.9255  1.100      0.000005      0.000394      0.001106
    2   H      2    1.4430  1.100     -0.000293      0.075004      1.096750
    3   H      3    1.4430  1.100     -0.000112     -0.985793     -0.481947
    4   H      4    1.4430  1.100      0.000416      0.912091     -0.611084
    5  Cl      5    1.9735  1.100     -2.159325     -0.000102     -0.000312
    6  Cl      6    1.9735  1.100      2.159323     -0.000114     -0.000297
 ------------------------------------------------------------------------------
 GePol: Number of generator spheres                  =       6
 GePol: Total number of spheres                      =       6
 GePol: Number of exposed spheres                    =       6 (100.00%)
 GePol: Number of points                             =     747
 GePol: Average weight of points                     =       0.17
 GePol: Minimum weight of points                     =   0.18D-04
 GePol: Maximum weight of points                     =    0.21616
 GePol: Number of points with low weight             =      30
 GePol: Fraction of low-weight points (<1% of avg)   =       4.02%
 GePol: Cavity surface area                          =    124.395 Ang**2
 GePol: Cavity volume                                =    107.968 Ang**3
 Leave Link  301 at Fri Mar 17 16:16:40 2017, MaxMem=   134217728 cpu:         0.1
 (Enter /n/sw/g09_D.01/g09/l302.exe)
 Do NDO integrals.
 NPDir=0 NMtPBC=     1 NCelOv=     1 NCel=       1 NClECP=     1 NCelD=      1
         NCelK=      1 NCelE2=     1 NClLst=     1 CellRange=     0.0.
 One-electron integrals computed using PRISM.
 NBasis=    15 RedAO= F EigKep=  0.00D+00  NBF=    15
 NBsUse=    15 1.00D-04 EigRej=  0.00D+00 NBFU=    15
 Leave Link  302 at Fri Mar 17 16:16:40 2017, MaxMem=   134217728 cpu:         0.1
 (Enter /n/sw/g09_D.01/g09/l303.exe)
 DipDrv:  MaxL=1.
 Leave Link  303 at Fri Mar 17 16:16:40 2017, MaxMem=   134217728 cpu:         0.0
 (Enter /n/sw/g09_D.01/g09/l401.exe)
 Initial guess from the checkpoint file:  "/scratch/ekwan_MeCl_ts_pcm/Gau-28441.chk"
 B after Tr=     0.000000    0.000000    0.000000
         Rot=    0.647819    0.282910   -0.641166    0.298660 Ang=  99.25 deg.
 Guess basis will be translated and rotated to current coordinates.
 JPrj=0 DoOrth=T DoCkMO=T.
 Leave Link  401 at Fri Mar 17 16:16:40 2017, MaxMem=   134217728 cpu:         0.1
 (Enter /n/sw/g09_D.01/g09/l502.exe)
 Closed shell SCF:
 Using DIIS extrapolation, IDIIS=  1040.
 Overlap will be assumed to be unity.
 Two-electron integral symmetry not used.
 Keep J ints in memory in canonical form, NReq=3589964.
 IVT=       79028 IEndB=       79028 NGot=   134217728 MDV=   134138140
 LenX=   134138140 LenY=   134137258
 Requested convergence on RMS density matrix=1.00D-08 within 128 cycles.
 Requested convergence on MAX density matrix=1.00D-06.
 Requested convergence on             energy=1.00D-06.
 No special actions if energy rises.
 FoFCou: FMM=F IPFlag=           0 FMFlag=           0 FMFlg1=           0
         NFxFlg=           0 DoJE=F BraDBF=F KetDBF=F FulRan=T
         wScrn=  0.000000 ICntrl=     600 IOpCl=  2 I1Cent=           0 NGrid=           0
         NMat0=    1 NMatS0=     33 NMatT0=    0 NMatD0=    1 NMtDS0=    0 NMtDT0=    0
 Symmetry not used in FoFCou.

 Cycle   1  Pass 1  IDiag  1:
 Inv3:  Mode=1 IEnd=     1674027.
 Iteration    1 A*A^-1 deviation from unit magnitude is 5.00D-15 for    339.
 Iteration    1 A*A^-1 deviation from orthogonality  is 2.73D-15 for    575     27.
 Iteration    1 A^-1*A deviation from unit magnitude is 4.00D-15 for    253.
 Iteration    1 A^-1*A deviation from orthogonality  is 1.48D-12 for    337    223.
 E=-0.178782607606109    
 DIIS: error= 1.84D-04 at cycle   1 NSaved=   1.
 NSaved= 1 IEnMin= 1 EnMin=-0.178782607606109     IErMin= 1 ErrMin= 1.84D-04
 ErrMax= 1.84D-04  0.00D+00 EMaxC= 1.00D-01 BMatC= 6.93D-07 BMatP= 6.93D-07
 IDIUse=3 WtCom= 9.98D-01 WtEn= 1.84D-03
 Coeff-Com:  0.100D+01
 Coeff-En:   0.100D+01
 Coeff:      0.100D+01
 RMSDP=1.01D-04 MaxDP=6.89D-04              OVMax= 0.00D+00

 Cycle   2  Pass 1  IDiag  3:
 E=-0.178784797198276     Delta-E=       -0.000002189592 Rises=F Damp=F
 DIIS: error= 6.63D-05 at cycle   2 NSaved=   2.
 NSaved= 2 IEnMin= 2 EnMin=-0.178784797198276     IErMin= 2 ErrMin= 6.63D-05
 ErrMax= 6.63D-05  0.00D+00 EMaxC= 1.00D-01 BMatC= 7.46D-08 BMatP= 6.93D-07
 IDIUse=1 WtCom= 1.00D+00 WtEn= 0.00D+00
 Coeff-Com: -0.387D+00 0.139D+01
 Coeff:     -0.387D+00 0.139D+01
 Gap=     0.377 Goal=   None    Shift=    0.000
 RMSDP=5.92D-05 MaxDP=3.95D-04 DE=-2.19D-06 OVMax= 4.30D-04

 Cycle   3  Pass 1  IDiag  3:
 E=-0.178785190842334     Delta-E=       -0.000000393644 Rises=F Damp=F
 DIIS: error= 1.52D-05 at cycle   3 NSaved=   3.
 NSaved= 3 IEnMin= 3 EnMin=-0.178785190842334     IErMin= 3 ErrMin= 1.52D-05
 ErrMax= 1.52D-05  0.00D+00 EMaxC= 1.00D-01 BMatC= 4.21D-09 BMatP= 7.46D-08
 IDIUse=1 WtCom= 1.00D+00 WtEn= 0.00D+00
 Coeff-Com:  0.188D+00-0.812D+00 0.162D+01
 Coeff:      0.188D+00-0.812D+00 0.162D+01
 Gap=     0.377 Goal=   None    Shift=    0.000
 RMSDP=2.11D-05 MaxDP=1.05D-04 DE=-3.94D-07 OVMax= 1.43D-04

 Cycle   4  Pass 1  IDiag  3:
 E=-0.178785221719323     Delta-E=       -0.000000030877 Rises=F Damp=F
 DIIS: error= 2.23D-06 at cycle   4 NSaved=   4.
 NSaved= 4 IEnMin= 4 EnMin=-0.178785221719323     IErMin= 4 ErrMin= 2.23D-06
 ErrMax= 2.23D-06  0.00D+00 EMaxC= 1.00D-01 BMatC= 1.08D-10 BMatP= 4.21D-09
 IDIUse=1 WtCom= 1.00D+00 WtEn= 0.00D+00
 Coeff-Com: -0.103D+00 0.456D+00-0.992D+00 0.164D+01
 Coeff:     -0.103D+00 0.456D+00-0.992D+00 0.164D+01
 Gap=     0.377 Goal=   None    Shift=    0.000
 RMSDP=3.17D-06 MaxDP=1.58D-05 DE=-3.09D-08 OVMax= 1.80D-05

 Cycle   5  Pass 1  IDiag  3:
 E=-0.178785222408678     Delta-E=       -0.000000000689 Rises=F Damp=F
 DIIS: error= 1.96D-07 at cycle   5 NSaved=   5.
 NSaved= 5 IEnMin= 5 EnMin=-0.178785222408678     IErMin= 5 ErrMin= 1.96D-07
 ErrMax= 1.96D-07  0.00D+00 EMaxC= 1.00D-01 BMatC= 1.10D-12 BMatP= 1.08D-10
 IDIUse=1 WtCom= 1.00D+00 WtEn= 0.00D+00
 Coeff-Com:  0.311D-01-0.138D+00 0.303D+00-0.538D+00 0.134D+01
 Coeff:      0.311D-01-0.138D+00 0.303D+00-0.538D+00 0.134D+01
 Gap=     0.377 Goal=   None    Shift=    0.000
 RMSDP=2.41D-07 MaxDP=1.20D-06 DE=-6.89D-10 OVMax= 1.17D-06

 Cycle   6  Pass 1  IDiag  3:
 E=-0.178785222414732     Delta-E=       -0.000000000006 Rises=F Damp=F
 DIIS: error= 4.35D-08 at cycle   6 NSaved=   6.
 NSaved= 6 IEnMin= 6 EnMin=-0.178785222414732     IErMin= 6 ErrMin= 4.35D-08
 ErrMax= 4.35D-08  0.00D+00 EMaxC= 1.00D-01 BMatC= 5.66D-14 BMatP= 1.10D-12
 IDIUse=1 WtCom= 1.00D+00 WtEn= 0.00D+00
 Coeff-Com: -0.157D-01 0.696D-01-0.153D+00 0.274D+00-0.799D+00 0.162D+01
 Coeff:     -0.157D-01 0.696D-01-0.153D+00 0.274D+00-0.799D+00 0.162D+01
 Gap=     0.377 Goal=   None    Shift=    0.000
 RMSDP=7.43D-08 MaxDP=2.79D-07 DE=-6.05D-12 OVMax= 5.26D-07

 Cycle   7  Pass 1  IDiag  3:
 E=-0.178785222415144     Delta-E=        0.000000000000 Rises=F Damp=F
 DIIS: error= 3.91D-09 at cycle   7 NSaved=   7.
 NSaved= 7 IEnMin= 7 EnMin=-0.178785222415144     IErMin= 7 ErrMin= 3.91D-09
 ErrMax= 3.91D-09  0.00D+00 EMaxC= 1.00D-01 BMatC= 5.35D-16 BMatP= 5.66D-14
 IDIUse=1 WtCom= 1.00D+00 WtEn= 0.00D+00
 Coeff-Com:  0.790D-02-0.350D-01 0.769D-01-0.138D+00 0.405D+00-0.849D+00
 Coeff-Com:  0.153D+01
 Coeff:      0.790D-02-0.350D-01 0.769D-01-0.138D+00 0.405D+00-0.849D+00
 Coeff:      0.153D+01
 Gap=     0.377 Goal=   None    Shift=    0.000
 RMSDP=6.18D-09 MaxDP=2.31D-08 DE=-4.12D-13 OVMax= 0.00D+00

 Error on total polarization charges =  0.00012
 SCF Done:  E(RAM1) = -0.178785222415     A.U. after    7 cycles
            NFock=  7  Conv=0.62D-08     -V/T= 0.9860
 KE=-1.276724351019D+01 PE=-1.083857521542D+02 EE= 5.543596357954D+01
 Leave Link  502 at Fri Mar 17 16:16:42 2017, MaxMem=   134217728 cpu:         1.7
 (Enter /n/sw/g09_D.01/g09/l701.exe)
 Compute integral first derivatives.
 ... and contract with generalized density number  0.
 D1PCM: PCM CHGder 1st derivatives, ID1Alg=3 FixD1E=F DoIter=F DoCFld=F I1PDM=0.
 GePol: Maximum number of non-zero 1st derivatives   =     264
 Leave Link  701 at Fri Mar 17 16:16:43 2017, MaxMem=   134217728 cpu:         0.7
 (Enter /n/sw/g09_D.01/g09/l702.exe)
 L702 exits ... SP integral derivatives will be done elsewhere.
 Leave Link  702 at Fri Mar 17 16:16:43 2017, MaxMem=   134217728 cpu:         0.0
 (Enter /n/sw/g09_D.01/g09/l703.exe)
 Compute integral first derivatives, UseDBF=F ICtDFT=           0.
 Integral derivatives from FoFJK, PRISM(SPDF).
 Calling FoFJK, ICntrl=      2127 FMM=F ISym2X=0 I1Cent= 0 IOpClX= 0 NMat=1 NMatS=1 NMatT=0.
 FoFJK:  IHMeth= 8 ICntrl=    2127 DoSepK=F KAlg= 0 I1Cent=   0 FoldK=F
 IRaf=         0 NMat=   1 IRICut=       1 DoRegI=T DoRafI=F ISym2E= 0.
 FoFCou: FMM=F IPFlag=           0 FMFlag=      100000 FMFlg1=         800
         NFxFlg=           0 DoJE=F BraDBF=F KetDBF=F FulRan=T
         wScrn=  0.000000 ICntrl=    2127 IOpCl=  0 I1Cent=           0 NGrid=           0
         NMat0=    1 NMatS0=      1 NMatT0=    0 NMatD0=    1 NMtDS0=    0 NMtDT0=    0
 Symmetry not used in FoFCou.
 Leave Link  703 at Fri Mar 17 16:16:43 2017, MaxMem=   134217728 cpu:         0.0
 (Enter /n/sw/g09_D.01/g09/l716.exe)
 Dipole        = 6.44169655D-05 7.07600645D-04 2.00364924D-03
 ***** Axes restored to original set *****
 -------------------------------------------------------------------
 Center     Atomic                   Forces (Hartrees/Bohr)
 Number     Number              X              Y              Z
 -------------------------------------------------------------------
      1        6          -0.000001815    0.000015819    0.000005275
      2        1          -0.000020248    0.000010442   -0.000008324
      3        1          -0.000007793    0.000019248   -0.000016771
      4        1           0.000029865   -0.000027880    0.000002587
      5       17           0.000028591    0.000002483    0.000009015
      6       17          -0.000028601   -0.000020112    0.000008218
 -------------------------------------------------------------------
 Cartesian Forces:  Max     0.000029865 RMS     0.000017405
 Leave Link  716 at Fri Mar 17 16:16:43 2017, MaxMem=   134217728 cpu:         0.0
 (Enter /n/sw/g09_D.01/g09/l103.exe)

 GradGradGradGradGradGradGradGradGradGradGradGradGradGradGradGradGradGrad
 Berny optimization.
 FormGI is forming the generalized inverse of G from B-inverse, IUseBI=4.
 Internal  Forces:  Max     0.000042768 RMS     0.000017951
 Search for a saddle point.
 Step number   2 out of a maximum of   33
 All quantities printed in internal units (Hartrees-Bohrs-Radians)
 Swapping is turned off.
 Update second derivatives using D2CorX and points    1    2
 ITU=  0  0
     Eigenvalues ---   -0.03980   0.02655   0.02687   0.04518   0.04590
     Eigenvalues ---    0.06776   0.07941   0.08177   0.08736   0.34600
     Eigenvalues ---    0.34633   0.38458
 Eigenvectors required to have negative eigenvalues:
                          R5        R4        D1        A3        A4
   1                    0.58781  -0.58718  -0.45438   0.13299  -0.13213
                          A7        A6        A9        A8        A10
   1                   -0.13185   0.13179  -0.12950   0.12869   0.00086
 RFO step:  Lambda0=1.801593597D-12 Lambda=-1.08044457D-07.
 Linear search not attempted -- option 19 set.
 Iteration  1 RMS(Cart)=  0.00045426 RMS(Int)=  0.00000011
 Iteration  2 RMS(Cart)=  0.00000011 RMS(Int)=  0.00000005
 ITry= 1 IFail=0 DXMaxC= 1.05D-03 DCOld= 1.00D+10 DXMaxT= 3.00D-01 DXLimC= 3.00D+00 Rises=F
 Variable       Old X    -DE/DX   Delta X   Delta X   Delta X     New X
                                 (Linear)    (Quad)   (Total)
    R1        2.07526   0.00000   0.00000  -0.00001  -0.00001   2.07525
    R2        2.07518  -0.00002   0.00000  -0.00007  -0.00007   2.07510
    R3        2.07523  -0.00003   0.00000  -0.00008  -0.00008   2.07515
    R4        4.08054   0.00003   0.00000   0.00038   0.00038   4.08093
    R5        4.08052   0.00003   0.00000   0.00039   0.00039   4.08091
    A1        2.09426   0.00001   0.00000   0.00028   0.00028   2.09454
    A2        2.09414   0.00000   0.00000  -0.00022  -0.00022   2.09392
    A3        1.57120   0.00002   0.00000   0.00028   0.00028   1.57148
    A4        1.57173  -0.00002   0.00000  -0.00028  -0.00028   1.57146
    A5        2.09479   0.00000   0.00000  -0.00007  -0.00007   2.09473
    A6        1.57019   0.00000   0.00000  -0.00020  -0.00020   1.56999
    A7        1.57041  -0.00002   0.00000  -0.00043  -0.00043   1.56998
    A8        1.57099  -0.00002   0.00000  -0.00008  -0.00008   1.57092
    A9        1.57026   0.00004   0.00000   0.00070   0.00070   1.57096
   A10        3.14293   0.00000   0.00000   0.00001   0.00001   3.14293
   A11        3.14122  -0.00003   0.00000  -0.00072  -0.00072   3.14049
    D1       -3.14159   0.00000   0.00000   0.00000   0.00000  -3.14159
    D2       -2.09426  -0.00001   0.00000  -0.00028  -0.00028  -2.09454
    D3        2.09426   0.00001   0.00000   0.00028   0.00028   2.09454
    D4        2.09414   0.00000   0.00000  -0.00022  -0.00022   2.09392
    D5       -2.09414   0.00000   0.00000   0.00022   0.00022  -2.09392
    D6       -2.09479   0.00000   0.00000   0.00007   0.00007  -2.09473
    D7        2.09479   0.00000   0.00000  -0.00007  -0.00007   2.09473
         Item               Value     Threshold  Converged?
 Maximum Force            0.000043     0.000450     YES
 RMS     Force            0.000018     0.000300     YES
 Maximum Displacement     0.001045     0.001800     YES
 RMS     Displacement     0.000454     0.001200     YES
 Predicted change in Energy=-5.402133D-08
 Optimization completed.
    -- Stationary point found.
                           ----------------------------
                           !   Optimized Parameters   !
                           ! (Angstroms and Degrees)  !
 --------------------------                            --------------------------
 ! Name  Definition              Value          Derivative Info.                !
 --------------------------------------------------------------------------------
 ! R1    R(1,2)                  1.0982         -DE/DX =    0.0                 !
 ! R2    R(1,3)                  1.0981         -DE/DX =    0.0                 !
 ! R3    R(1,4)                  1.0982         -DE/DX =    0.0                 !
 ! R4    R(1,5)                  2.1593         -DE/DX =    0.0                 !
 ! R5    R(1,6)                  2.1593         -DE/DX =    0.0                 !
 ! A1    A(2,1,3)              119.9921         -DE/DX =    0.0                 !
 ! A2    A(2,1,4)              119.9851         -DE/DX =    0.0                 !
 ! A3    A(2,1,5)               90.0229         -DE/DX =    0.0                 !
 ! A4    A(2,1,6)               90.0537         -DE/DX =    0.0                 !
 ! A5    A(3,1,4)              120.0227         -DE/DX =    0.0                 !
 ! A6    A(3,1,5)               89.9655         -DE/DX =    0.0                 !
 ! A7    A(3,1,6)               89.9776         -DE/DX =    0.0                 !
 ! A8    A(4,1,5)               90.0114         -DE/DX =    0.0                 !
 ! A9    A(4,1,6)               89.969          -DE/DX =    0.0                 !
 ! A10   L(5,1,6,2,-1)         180.0765         -DE/DX =    0.0                 !
 ! A11   L(5,1,6,2,-2)         179.9785         -DE/DX =    0.0                 !
 ! D1    D(2,1,4,3)           -179.9997         -DE/DX =    0.0                 !
 ! D2    D(2,1,5,3)           -119.9921         -DE/DX =    0.0                 !
 ! D3    D(2,1,6,3)            119.9921         -DE/DX =    0.0                 !
 ! D4    D(2,1,5,4)            119.9852         -DE/DX =    0.0                 !
 ! D5    D(2,1,6,4)           -119.9851         -DE/DX =    0.0                 !
 ! D6    D(3,1,5,4)           -120.0227         -DE/DX =    0.0                 !
 ! D7    D(3,1,6,4)            120.0228         -DE/DX =    0.0                 !
 --------------------------------------------------------------------------------
 Lowest energy point so far.  Saving SCF results.
 GradGradGradGradGradGradGradGradGradGradGradGradGradGradGradGradGradGrad

 Largest change from initial coordinates is atom    6       3.051 Angstoms.
 Leave Link  103 at Fri Mar 17 16:16:43 2017, MaxMem=   134217728 cpu:         0.0
 (Enter /n/sw/g09_D.01/g09/l202.exe)
                          Input orientation:                          
 ---------------------------------------------------------------------
 Center     Atomic      Atomic             Coordinates (Angstroms)
 Number     Number       Type             X           Y           Z
 ---------------------------------------------------------------------
      1          6           0        0.000182   -0.000195   -0.000380
      2          1           0        0.000428   -0.753171   -0.799773
      3          1           0        0.000280   -0.316133    1.051327
      4          1           0       -0.000157    1.068507   -0.253054
      5         17           0        2.159513    0.000362    0.000943
      6         17           0       -2.159135    0.000635    0.000951
 ---------------------------------------------------------------------
                    Distance matrix (angstroms):
                    1          2          3          4          5
     1  C    0.000000
     2  H    1.098181   0.000000
     3  H    1.098137   1.901992   0.000000
     4  H    1.098165   1.901949   1.902272   0.000000
     5  Cl   2.159331   2.422933   2.421934   2.422730   0.000000
     6  Cl   2.159318   2.423447   2.422128   2.421995   4.318648
                    6
     6  Cl   0.000000
 Stoichiometry    CH3Cl2(1-)
 Framework group  C1[X(CH3Cl2)]
 Deg. of freedom    12
 Full point group                 C1      NOp   1
 RotChk:  IX=3 Diff= 5.95D-11
 Largest Abelian subgroup         C1      NOp   1
 Largest concise Abelian subgroup C1      NOp   1
                         Standard orientation:                         
 ---------------------------------------------------------------------
 Center     Atomic      Atomic             Coordinates (Angstroms)
 Number     Number       Type             X           Y           Z
 ---------------------------------------------------------------------
      1          6           0        0.000005    0.000394    0.001106
      2          1           0       -0.000293    0.075004    1.096750
      3          1           0       -0.000112   -0.985793   -0.481947
      4          1           0        0.000416    0.912091   -0.611084
      5         17           0       -2.159325   -0.000102   -0.000312
      6         17           0        2.159323   -0.000114   -0.000297
 ---------------------------------------------------------------------
 Rotational constants (GHZ):    138.6038335      1.5411660      1.5411625
 Leave Link  202 at Fri Mar 17 16:16:43 2017, MaxMem=   134217728 cpu:         0.0
 (Enter /n/sw/g09_D.01/g09/l601.exe)
 Copying SCF densities to generalized density rwf, IOpCl= 0 IROHF=0.

 **********************************************************************

            Population analysis using the SCF density.

 **********************************************************************

 Orbital symmetries:
       Occupied  (A) (A) (A) (A) (A) (A) (A) (A) (A) (A) (A)
       Virtual   (A) (A) (A) (A)
 The electronic state is 1-A.
 Alpha  occ. eigenvalues --   -1.23311  -1.22419  -1.03467  -0.53549  -0.53540
 Alpha  occ. eigenvalues --   -0.47342  -0.38670  -0.38668  -0.37371  -0.37371
 Alpha  occ. eigenvalues --   -0.33350
 Alpha virt. eigenvalues --    0.04350   0.15129   0.16790   0.16792
          Condensed to atoms (all electrons):
               1          2          3          4          5          6
     1  C    3.895158   0.000000   0.000000   0.000000   0.000000   0.000000
     2  H    0.000000   0.884160   0.000000   0.000000   0.000000   0.000000
     3  H    0.000000   0.000000   0.884245   0.000000   0.000000   0.000000
     4  H    0.000000   0.000000   0.000000   0.884219   0.000000   0.000000
     5  Cl   0.000000   0.000000   0.000000   0.000000   7.726116   0.000000
     6  Cl   0.000000   0.000000   0.000000   0.000000   0.000000   7.726102
 Mulliken charges:
               1
     1  C    0.104842
     2  H    0.115840
     3  H    0.115755
     4  H    0.115781
     5  Cl  -0.726116
     6  Cl  -0.726102
 Sum of Mulliken charges =  -1.00000
 Mulliken charges with hydrogens summed into heavy atoms:
               1
     1  C    0.452218
     5  Cl  -0.726116
     6  Cl  -0.726102
 Charge=             -1.0000 electrons
 Dipole moment (field-independent basis, Debye):
    X=              0.0002    Y=              0.0018    Z=              0.0051  Tot=              0.0054
 N-N= 6.553824686242D+01 E-N=-1.083857521359D+02  KE=-1.276724351019D+01
 Leave Link  601 at Fri Mar 17 16:16:43 2017, MaxMem=   134217728 cpu:         0.0
 (Enter /n/sw/g09_D.01/g09/l9999.exe)
 1\1\GINC-DAE24\FTS\RAM1\ZDO\C1H3Cl2(1-)\ROOT\17-Mar-2017\0\\#p opt=(ts
 ,calcfc,noeigentest) freq=noraman am1 scrf=(pcm,solvent=water)\\Title 
 Card Required\\-1,1\C,0.0001817956,-0.0001948963,-0.0003804287\H,0.000
 4279816,-0.7531705898,-0.7997732841\H,0.0002795001,-0.3161334897,1.051
 3267647\H,-0.0001565001,1.0685067993,-0.2530536921\Cl,2.1595126764,0.0
 003619965,0.0009430937\Cl,-2.1591354536,0.00063518,0.0009505466\\Versi
 on=EM64L-G09RevD.01\State=1-A\HF=-0.1787852\RMSD=6.179e-09\RMSF=1.741e
 -05\Dipole=-0.0000645,-0.0009888,-0.0018808\PG=C01 [X(C1H3Cl2)]\\@


 YOU SHOULDN'T LET PEOPLE DRIVE YOU CRAZY
 WHEN YOU KNOW IT'S WITHIN WALKING DISTANCE.
 Leave Link 9999 at Fri Mar 17 16:16:43 2017, MaxMem=   134217728 cpu:         0.0
 Job cpu time:       0 days  0 hours  0 minutes 12.4 seconds.
 File lengths (MBytes):  RWF=     28 Int=      0 D2E=      0 Chk=      3 Scr=      1
 Normal termination of Gaussian 09 at Fri Mar 17 16:16:43 2017.
 (Enter /n/sw/g09_D.01/g09/l1.exe)
 Link1:  Proceeding to internal job step number  2.
 -------------------------------------------------------------
 #P Geom=AllCheck Guess=TCheck SCRF=Check GenChk RAM1/ZDO Freq
 -------------------------------------------------------------
 1/5=1,10=4,11=1,29=7,30=1,38=1,40=1/1,3;
 2/12=2,40=1/2;
 3/5=2,14=-4,16=1,25=1,41=700000,70=2,71=2,72=1,116=1,135=40,140=1/1,2,3;
 4/5=101,35=1/1;
 5/5=2,35=1,53=1,98=1/2;
 8/6=4,10=90,11=11/1;
 11/6=1,8=1,9=11,15=111,16=1/1,2,10;
 10/6=1/2;
 6/7=2,8=2,9=2,10=2,18=1,28=1/1;
 7/8=1,10=1,25=1/1,2,3,16;
 1/5=1,10=4,11=1,30=1/3;
 99//99;
 Leave Link    1 at Fri Mar 17 16:16:43 2017, MaxMem=   134217728 cpu:         0.0
 (Enter /n/sw/g09_D.01/g09/l101.exe)
 Structure from the checkpoint file:  "/scratch/ekwan_MeCl_ts_pcm/Gau-28441.chk"
 -------------------
 Title Card Required
 -------------------
 Charge = -1 Multiplicity = 1
 Redundant internal coordinates found in file.
 C,0,0.0001817956,-0.0001948963,-0.0003804287
 H,0,0.0004279816,-0.7531705898,-0.7997732841
 H,0,0.0002795001,-0.3161334897,1.0513267647
 H,0,-0.0001565001,1.0685067993,-0.2530536921
 Cl,0,2.1595126764,0.0003619965,0.0009430937
 Cl,0,-2.1591354536,0.00063518,0.0009505466
 Recover connectivity data from disk.
 NAtoms=      6 NQM=        6 NQMF=       0 NMMI=      0 NMMIF=      0
                NMic=       0 NMicF=      0.
                    Isotopes and Nuclear Properties:
 (Nuclear quadrupole moments (NQMom) in fm**2, nuclear magnetic moments (NMagM)
  in nuclear magnetons)

  Atom         1           2           3           4           5           6
 IAtWgt=          12           1           1           1          35          35
 AtmWgt=  12.0000000   1.0078250   1.0078250   1.0078250  34.9688527  34.9688527
 NucSpn=           0           1           1           1           3           3
 AtZEff=  -3.9000000  -1.0000000  -1.0000000  -1.0000000-204.0000000-204.0000000
 NQMom=    0.0000000   0.0000000   0.0000000   0.0000000  -8.1650000  -8.1650000
 NMagM=    0.0000000   2.7928460   2.7928460   2.7928460   0.8218740   0.8218740
 AtZNuc=   6.0000000   1.0000000   1.0000000   1.0000000  17.0000000  17.0000000
 Leave Link  101 at Fri Mar 17 16:16:43 2017, MaxMem=   134217728 cpu:         0.1
 (Enter /n/sw/g09_D.01/g09/l103.exe)

 GradGradGradGradGradGradGradGradGradGradGradGradGradGradGradGradGradGrad
 Berny optimization.
 Initialization pass.
                           ----------------------------
                           !    Initial Parameters    !
                           ! (Angstroms and Degrees)  !
 --------------------------                            --------------------------
 ! Name  Definition              Value          Derivative Info.                !
 --------------------------------------------------------------------------------
 ! R1    R(1,2)                  1.0982         calculate D2E/DX2 analytically  !
 ! R2    R(1,3)                  1.0981         calculate D2E/DX2 analytically  !
 ! R3    R(1,4)                  1.0982         calculate D2E/DX2 analytically  !
 ! R4    R(1,5)                  2.1593         calculate D2E/DX2 analytically  !
 ! R5    R(1,6)                  2.1593         calculate D2E/DX2 analytically  !
 ! A1    A(2,1,3)              119.9921         calculate D2E/DX2 analytically  !
 ! A2    A(2,1,4)              119.9851         calculate D2E/DX2 analytically  !
 ! A3    A(2,1,5)               90.0229         calculate D2E/DX2 analytically  !
 ! A4    A(2,1,6)               90.0537         calculate D2E/DX2 analytically  !
 ! A5    A(3,1,4)              120.0227         calculate D2E/DX2 analytically  !
 ! A6    A(3,1,5)               89.9655         calculate D2E/DX2 analytically  !
 ! A7    A(3,1,6)               89.9776         calculate D2E/DX2 analytically  !
 ! A8    A(4,1,5)               90.0114         calculate D2E/DX2 analytically  !
 ! A9    A(4,1,6)               89.969          calculate D2E/DX2 analytically  !
 ! A10   L(5,1,6,2,-1)         180.0765         calculate D2E/DX2 analytically  !
 ! A11   L(5,1,6,2,-2)         179.9785         calculate D2E/DX2 analytically  !
 ! D1    D(2,1,4,3)           -179.9997         calculate D2E/DX2 analytically  !
 ! D2    D(2,1,5,3)           -119.9921         calculate D2E/DX2 analytically  !
 ! D3    D(2,1,6,3)            119.9921         calculate D2E/DX2 analytically  !
 ! D4    D(2,1,5,4)            119.9852         calculate D2E/DX2 analytically  !
 ! D5    D(2,1,6,4)           -119.9851         calculate D2E/DX2 analytically  !
 ! D6    D(3,1,5,4)           -120.0227         calculate D2E/DX2 analytically  !
 ! D7    D(3,1,6,4)            120.0228         calculate D2E/DX2 analytically  !
 --------------------------------------------------------------------------------
 Trust Radius=3.00D-01 FncErr=1.00D-07 GrdErr=1.00D-07
 Number of steps in this run=      2 maximum allowed number of steps=      2.
 Search for a saddle point of order  1.
 GradGradGradGradGradGradGradGradGradGradGradGradGradGradGradGradGradGrad

 Leave Link  103 at Fri Mar 17 16:16:43 2017, MaxMem=   134217728 cpu:         0.0
 (Enter /n/sw/g09_D.01/g09/l202.exe)
                          Input orientation:                          
 ---------------------------------------------------------------------
 Center     Atomic      Atomic             Coordinates (Angstroms)
 Number     Number       Type             X           Y           Z
 ---------------------------------------------------------------------
      1          6           0        0.000182   -0.000195   -0.000380
      2          1           0        0.000428   -0.753171   -0.799773
      3          1           0        0.000280   -0.316133    1.051327
      4          1           0       -0.000157    1.068507   -0.253054
      5         17           0        2.159513    0.000362    0.000943
      6         17           0       -2.159135    0.000635    0.000951
 ---------------------------------------------------------------------
                    Distance matrix (angstroms):
                    1          2          3          4          5
     1  C    0.000000
     2  H    1.098181   0.000000
     3  H    1.098137   1.901992   0.000000
     4  H    1.098165   1.901949   1.902272   0.000000
     5  Cl   2.159331   2.422933   2.421934   2.422730   0.000000
     6  Cl   2.159318   2.423447   2.422128   2.421995   4.318648
                    6
     6  Cl   0.000000
 Stoichiometry    CH3Cl2(1-)
 Framework group  C1[X(CH3Cl2)]
 Deg. of freedom    12
 Full point group                 C1      NOp   1
 RotChk:  IX=3 Diff= 8.91D-11
 Largest Abelian subgroup         C1      NOp   1
 Largest concise Abelian subgroup C1      NOp   1
                         Standard orientation:                         
 ---------------------------------------------------------------------
 Center     Atomic      Atomic             Coordinates (Angstroms)
 Number     Number       Type             X           Y           Z
 ---------------------------------------------------------------------
      1          6           0        0.000005    0.000394    0.001106
      2          1           0       -0.000293    0.075004    1.096750
      3          1           0       -0.000112   -0.985793   -0.481947
[...]
                                                                                       X                                             
                                                                                       X                                             
                                                                                       X                                             
                                                                                       X                                             
                                                                                       X                                             
                                                                                       X                                             
                                                                                       X                                             
 
 ***** Axes restored to original set *****
 -------------------------------------------------------------------
 Center     Atomic                   Forces (Hartrees/Bohr)
 Number     Number              X              Y              Z
 -------------------------------------------------------------------
      1        6          -0.000001812    0.000015819    0.000005276
      2        1          -0.000020249    0.000010442   -0.000008324
      3        1          -0.000007793    0.000019248   -0.000016771
      4        1           0.000029865   -0.000027880    0.000002586
      5       17           0.000028590    0.000002483    0.000009016
      6       17          -0.000028601   -0.000020112    0.000008218
 -------------------------------------------------------------------
 Cartesian Forces:  Max     0.000029865 RMS     0.000017405
 Force constants in Cartesian coordinates: 
                1             2             3             4             5 
      1 -0.157070D+00
      2 -0.114259D-03  0.567877D+00
      3 -0.163189D-05 -0.182082D-03  0.567758D+00
      4 -0.507196D-03  0.356335D-04  0.404295D-04  0.406434D-01
      5  0.524251D-04 -0.174315D+00 -0.139288D+00 -0.448208D-04  0.188553D+00
      6  0.461002D-04 -0.139258D+00 -0.190974D+00 -0.420969D-04  0.158095D+00
      7 -0.220620D-03  0.399463D-05 -0.214713D-04  0.332861D-02  0.000000D+00
      8  0.162603D-04 -0.662979D-01  0.768723D-01  0.000000D+00  0.647626D-02
      9 -0.242849D-04  0.769188D-01 -0.299123D+00  0.000000D+00  0.153236D-02
     10 -0.156075D-03  0.715839D-04 -0.178104D-04  0.332727D-02  0.588631D-05
     11  0.939645D-04 -0.307408D+00  0.624632D-01  0.592276D-05 -0.214410D-01
     12 -0.205107D-04  0.623856D-01 -0.578982D-01  0.209640D-05 -0.176556D-01
     13  0.789765D-01  0.313002D-04  0.104851D-04 -0.234022D-01 -0.322257D-02
     14  0.101236D-03 -0.992920D-02  0.685912D-04 -0.660357D-02  0.363934D-03
     15  0.219015D-03  0.689953D-04 -0.987986D-02 -0.711998D-02 -0.134394D-02
     16  0.789772D-01 -0.282517D-04 -0.100009D-04 -0.233899D-01  0.320868D-02
     17 -0.149628D-03 -0.992732D-02  0.658830D-04  0.660661D-02  0.362953D-03
     18 -0.218687D-03  0.662090D-04 -0.988341D-02  0.711883D-02 -0.134025D-02
                6             7             8             9            10 
      6  0.207429D+00
      7  0.236161D-05  0.415101D-01
      8 -0.159787D-01 -0.129844D-04  0.657279D-01
      9 -0.223990D-01  0.218537D-04 -0.874981D-01  0.330699D+00
     10  0.143715D-05  0.331748D-02  0.319264D-05 -0.266071D-05  0.415352D-01
     11 -0.134336D-03  0.356316D-05 -0.890210D-02  0.735085D-02 -0.817442D-04
     12  0.550768D-02 -0.358501D-05  0.248943D-01 -0.697708D-02  0.189726D-04
     13 -0.353694D-02 -0.239704D-01 -0.128490D-02  0.438072D-02 -0.240015D-01
     14 -0.136309D-02 -0.270864D-02  0.149824D-02  0.847753D-03  0.915533D-02
     15  0.217936D-03  0.909442D-02  0.856487D-03 -0.110041D-02 -0.207446D-02
     16  0.352914D-02 -0.239651D-01  0.127821D-02 -0.437634D-02 -0.240225D-01
     17 -0.136173D-02  0.271366D-02  0.149753D-02  0.848304D-03 -0.915425D-02
     18  0.217969D-03 -0.909358D-02  0.853802D-03 -0.109948D-02  0.207452D-02
               11            12            13            14            15 
     11  0.339895D+00
     12 -0.710388D-01  0.565202D-01
     13  0.434655D-02 -0.932977D-03  0.402228D-01
     14 -0.106909D-02  0.706515D-03  0.862232D-04  0.798618D-02
     15  0.678212D-03  0.142216D-02 -0.199921D-04 -0.256181D-03  0.818512D-02
     16 -0.436826D-02  0.936002D-03 -0.478253D-01 -0.305797D-04 -0.990195D-04
     17 -0.107459D-02  0.708114D-03  0.434084D-04  0.114990D-02 -0.356919D-05
     18  0.680835D-03  0.142522D-02  0.987057D-04 -0.359136D-05  0.115503D-02
               16            17            18 
     16  0.402256D-01
     17 -0.598022D-04  0.799149D-02
     18  0.202234D-04 -0.257006D-03  0.818464D-02
 FormGI is forming the generalized inverse of G from B-inverse, IUseBI=4.
 Force constants in internal coordinates: 
                1             2             3             4             5 
      1  0.356368D+00
      2  0.125403D-01  0.356984D+00
      3  0.125390D-01  0.125290D-01  0.356706D+00
      4  0.477962D-02  0.456235D-02  0.445187D-02  0.402228D-01
      5  0.477500D-02  0.456054D-02  0.445874D-02  0.478254D-01  0.402256D-01
      6  0.259265D-02  0.259555D-02 -0.519574D-02  0.305220D-04  0.223050D-04
      7  0.260946D-02 -0.519492D-02  0.258368D-02  0.195940D-05  0.401099D-05
      8  0.123619D-02 -0.800322D-03 -0.686115D-03  0.794176D-02 -0.783328D-02
      9  0.123807D-02 -0.803044D-03 -0.684073D-03 -0.783600D-02  0.791401D-02
     10 -0.520211D-02  0.259937D-02  0.261206D-02 -0.323380D-04 -0.264594D-04
     11 -0.598323D-03  0.157965D-02 -0.773014D-03  0.840567D-02 -0.840142D-02
     12 -0.601746D-03  0.158036D-02 -0.770095D-03 -0.840264D-02  0.839367D-02
     13 -0.639101D-03 -0.776955D-03  0.145823D-02  0.833614D-02 -0.844998D-02
     14 -0.640262D-03 -0.775944D-03  0.145632D-02 -0.844493D-02  0.837700D-02
     15  0.247426D-02 -0.160337D-02 -0.137019D-02  0.105765D-03  0.807295D-04
     16  0.453511D-04  0.272608D-02 -0.257833D-02  0.645664D-04  0.376780D-04
     17  0.000000D+00  0.000000D+00  0.000000D+00 -0.285045D-01  0.285058D-01
     18 -0.259201D-02 -0.259610D-02  0.519551D-02 -0.277830D-04 -0.249941D-04
     19  0.259225D-02  0.259684D-02 -0.519646D-02  0.226321D-04  0.301942D-04
     20  0.260966D-02 -0.519574D-02  0.258420D-02  0.103946D-04 -0.443990D-05
     21 -0.260886D-02  0.519546D-02 -0.258486D-02  0.388351D-05 -0.979513D-05
     22  0.520167D-02 -0.259963D-02 -0.261130D-02  0.381776D-04  0.205542D-04
     23 -0.520111D-02  0.259862D-02  0.261160D-02 -0.187486D-04 -0.399893D-04
                6             7             8             9            10 
      6  0.630182D-02
      7 -0.315422D-02  0.631652D-02
      8  0.412962D-03  0.377818D-03  0.349267D-01
      9  0.405941D-03  0.390350D-03 -0.227002D-01  0.349249D-01
     10 -0.314759D-02 -0.316230D-02 -0.790747D-03 -0.796323D-03  0.630989D-02
     11  0.383376D-03 -0.740171D-03 -0.147745D-01  0.852459D-02  0.356829D-03
     12  0.370710D-03 -0.742332D-03  0.852541D-02 -0.147699D-01  0.371588D-03
     13 -0.791348D-03  0.358189D-03 -0.145675D-01  0.859471D-02  0.433193D-03
     14 -0.783307D-03  0.351053D-03  0.859334D-02 -0.145709D-01  0.432220D-03
     15  0.818903D-03  0.768168D-03  0.122266D-01  0.122248D-01 -0.158707D-02
     16  0.135037D-02 -0.127188D-02 -0.158087D-03 -0.154706D-03 -0.784888D-04
     17 -0.440802D-05  0.122363D-05 -0.643638D-02  0.643617D-02  0.306916D-05
     18 -0.630167D-02  0.315448D-02 -0.395062D-03 -0.417453D-03  0.314719D-02
     19  0.630217D-02 -0.315483D-02  0.418230D-03  0.396422D-03 -0.314735D-02
     20 -0.315449D-02  0.631690D-02  0.385471D-03  0.384874D-03 -0.316241D-02
     21  0.315486D-02 -0.631676D-02 -0.386325D-03 -0.376224D-03  0.316190D-02
     22  0.314718D-02  0.316242D-02  0.780533D-03  0.802328D-03 -0.630960D-02
     23 -0.314731D-02 -0.316194D-02 -0.804555D-03 -0.772646D-03  0.630925D-02
               11            12            13            14            15 
     11  0.355479D-01
     12 -0.226733D-01  0.355470D-01
     13 -0.149746D-01  0.834703D-02  0.353347D-01
     14  0.834782D-02 -0.149785D-01 -0.227355D-01  0.353426D-01
     15 -0.624996D-02 -0.624449D-02 -0.597275D-02 -0.597752D-02  0.244513D-01
     16  0.112583D-01  0.112604D-01 -0.111005D-01 -0.111067D-01 -0.312793D-03
     17 -0.670449D-02  0.670462D-02 -0.669393D-02  0.669401D-02  0.000000D+00
     18 -0.394263D-03 -0.364183D-03  0.786274D-03  0.786355D-03 -0.812515D-03
     19  0.364736D-03  0.399808D-03 -0.783439D-03 -0.797425D-03  0.814652D-03
     20 -0.755557D-03 -0.733623D-03  0.371814D-03  0.341929D-03  0.770345D-03
     21  0.734461D-03  0.752623D-03 -0.339979D-03 -0.379462D-03 -0.762548D-03
     22 -0.361294D-03 -0.369440D-03 -0.414461D-03 -0.444426D-03  0.158286D-02
     23  0.369725D-03  0.352815D-03  0.443459D-03  0.417964D-03 -0.157720D-02
               16            17            18            19            20 
     16  0.258213D-01
     17  0.000000D+00  0.229051D-01
     18 -0.135171D-02  0.217601D-05  0.630153D-02
     19  0.135999D-02  0.190387D-05 -0.630202D-02  0.630255D-02
     20 -0.127833D-02 -0.557701D-05  0.315475D-02 -0.315508D-02  0.631730D-02
     21  0.128041D-02 -0.583634D-05 -0.315512D-02  0.315547D-02 -0.631714D-02
     22  0.733836D-04 -0.775303D-05 -0.314678D-02  0.314694D-02  0.316254D-02
     23 -0.795782D-04 -0.774020D-05  0.314690D-02 -0.314708D-02 -0.316205D-02
               21            22            23 
     21  0.631703D-02
     22 -0.316201D-02  0.630932D-02
     23  0.316155D-02 -0.630895D-02  0.630863D-02
 Leave Link  716 at Fri Mar 17 16:16:51 2017, MaxMem=   134217728 cpu:         0.0
 (Enter /n/sw/g09_D.01/g09/l103.exe)

 GradGradGradGradGradGradGradGradGradGradGradGradGradGradGradGradGradGrad
 Berny optimization.
 Red2BG is reusing G-inverse.
 Internal  Forces:  Max     0.000042768 RMS     0.000017951
 Search for a saddle point.
 Step number   1 out of a maximum of    2
 All quantities printed in internal units (Hartrees-Bohrs-Radians)
 Swapping is turned off.
 Second derivative matrix not updated -- analytic derivatives used.
 ITU=  0
     Eigenvalues ---   -0.04027   0.02662   0.02698   0.04376   0.04609
     Eigenvalues ---    0.06698   0.08101   0.08150   0.08762   0.34461
     Eigenvalues ---    0.34500   0.38219
 Eigenvectors required to have negative eigenvalues:
                          R4        R5        D1        A9        A6
   1                   -0.58973   0.58972  -0.45052  -0.13141   0.13125
                          A7        A8        A3        A4        D7
   1                   -0.13118   0.13116   0.12771  -0.12754   0.00019
 Angle between quadratic step and forces=  30.39 degrees.
 Linear search not attempted -- option 19 set.
 Iteration  1 RMS(Cart)=  0.00042504 RMS(Int)=  0.00000010
 Iteration  2 RMS(Cart)=  0.00000009 RMS(Int)=  0.00000005
 ITry= 1 IFail=0 DXMaxC= 1.01D-03 DCOld= 1.00D+10 DXMaxT= 3.00D-01 DXLimC= 3.00D+00 Rises=F
 Variable       Old X    -DE/DX   Delta X   Delta X   Delta X     New X
                                 (Linear)    (Quad)   (Total)
    R1        2.07526   0.00000   0.00000  -0.00001  -0.00001   2.07525
    R2        2.07518  -0.00002   0.00000  -0.00007  -0.00007   2.07511
    R3        2.07523  -0.00003   0.00000  -0.00007  -0.00007   2.07516
    R4        4.08054   0.00003   0.00000   0.00032   0.00032   4.08086
    R5        4.08052   0.00003   0.00000   0.00035   0.00035   4.08087
    A1        2.09426   0.00001   0.00000   0.00027   0.00027   2.09453
    A2        2.09414   0.00000   0.00000  -0.00020  -0.00020   2.09394
    A3        1.57120   0.00002   0.00000   0.00026   0.00026   1.57146
    A4        1.57173  -0.00002   0.00000  -0.00028  -0.00028   1.57146
    A5        2.09479   0.00000   0.00000  -0.00007  -0.00007   2.09472
    A6        1.57019   0.00000   0.00000  -0.00018  -0.00018   1.57001
    A7        1.57041  -0.00002   0.00000  -0.00040  -0.00040   1.57001
    A8        1.57099  -0.00002   0.00000  -0.00007  -0.00007   1.57092
    A9        1.57026   0.00004   0.00000   0.00067   0.00067   1.57092
   A10        3.14293   0.00000   0.00000  -0.00002  -0.00002   3.14291
   A11        3.14122  -0.00003   0.00000  -0.00068  -0.00068   3.14054
    D1       -3.14159   0.00000   0.00000   0.00000   0.00000  -3.14159
    D2       -2.09426  -0.00001   0.00000  -0.00027  -0.00027  -2.09453
    D3        2.09426   0.00001   0.00000   0.00027   0.00027   2.09453
    D4        2.09414   0.00000   0.00000  -0.00020  -0.00020   2.09394
    D5       -2.09414   0.00000   0.00000   0.00020   0.00020  -2.09394
    D6       -2.09479   0.00000   0.00000   0.00007   0.00007  -2.09472
    D7        2.09479   0.00000   0.00000  -0.00007  -0.00007   2.09472
         Item               Value     Threshold  Converged?
 Maximum Force            0.000043     0.000450     YES
 RMS     Force            0.000018     0.000300     YES
 Maximum Displacement     0.001007     0.001800     YES
 RMS     Displacement     0.000425     0.001200     YES
 Predicted change in Energy=-5.023102D-08
 Optimization completed.
    -- Stationary point found.
                           ----------------------------
                           !   Optimized Parameters   !
                           ! (Angstroms and Degrees)  !
 --------------------------                            --------------------------
 ! Name  Definition              Value          Derivative Info.                !
 --------------------------------------------------------------------------------
 ! R1    R(1,2)                  1.0982         -DE/DX =    0.0                 !
 ! R2    R(1,3)                  1.0981         -DE/DX =    0.0                 !
 ! R3    R(1,4)                  1.0982         -DE/DX =    0.0                 !
 ! R4    R(1,5)                  2.1593         -DE/DX =    0.0                 !
 ! R5    R(1,6)                  2.1593         -DE/DX =    0.0                 !
 ! A1    A(2,1,3)              119.9921         -DE/DX =    0.0                 !
 ! A2    A(2,1,4)              119.9851         -DE/DX =    0.0                 !
 ! A3    A(2,1,5)               90.0229         -DE/DX =    0.0                 !
 ! A4    A(2,1,6)               90.0537         -DE/DX =    0.0                 !
 ! A5    A(3,1,4)              120.0227         -DE/DX =    0.0                 !
 ! A6    A(3,1,5)               89.9655         -DE/DX =    0.0                 !
 ! A7    A(3,1,6)               89.9776         -DE/DX =    0.0                 !
 ! A8    A(4,1,5)               90.0114         -DE/DX =    0.0                 !
 ! A9    A(4,1,6)               89.969          -DE/DX =    0.0                 !
 ! A10   L(5,1,6,2,-1)         180.0765         -DE/DX =    0.0                 !
 ! A11   L(5,1,6,2,-2)         179.9785         -DE/DX =    0.0                 !
 ! D1    D(2,1,4,3)           -179.9997         -DE/DX =    0.0                 !
 ! D2    D(2,1,5,3)           -119.9921         -DE/DX =    0.0                 !
 ! D3    D(2,1,6,3)            119.9921         -DE/DX =    0.0                 !
 ! D4    D(2,1,5,4)            119.9852         -DE/DX =    0.0                 !
 ! D5    D(2,1,6,4)           -119.9851         -DE/DX =    0.0                 !
 ! D6    D(3,1,5,4)           -120.0227         -DE/DX =    0.0                 !
 ! D7    D(3,1,6,4)            120.0228         -DE/DX =    0.0                 !
 --------------------------------------------------------------------------------
 GradGradGradGradGradGradGradGradGradGradGradGradGradGradGradGradGradGrad

 Leave Link  103 at Fri Mar 17 16:16:51 2017, MaxMem=   134217728 cpu:         0.0
 (Enter /n/sw/g09_D.01/g09/l9999.exe)
 1\1\GINC-DAE24\Freq\RAM1\ZDO\C1H3Cl2(1-)\ROOT\17-Mar-2017\0\\#P Geom=A
 llCheck Guess=TCheck SCRF=Check GenChk RAM1/ZDO Freq\\Title Card Requi
 red\\-1,1\C,0.0001817956,-0.0001948963,-0.0003804287\H,0.0004279816,-0
 .7531705898,-0.7997732841\H,0.0002795001,-0.3161334897,1.0513267647\H,
 -0.0001565001,1.0685067993,-0.2530536921\Cl,2.1595126764,0.0003619965,
 0.0009430937\Cl,-2.1591354536,0.00063518,0.0009505466\\Version=EM64L-G
 09RevD.01\State=1-A\HF=-0.1787852\RMSD=9.194e-10\RMSF=1.741e-05\ZeroPo
 int=0.0363043\Thermal=0.0408633\Dipole=-0.0000644,-0.0009888,-0.001880
 8\DipoleDeriv=5.6748699,-0.0001231,-0.0000032,-0.0001477,0.2222696,0.0
 002667,-0.0000021,0.0000583,0.2227333,-0.2792941,-0.0000237,-0.00006,-
 0.0001252,0.0771013,0.0456976,-0.0000601,0.0449485,0.0822032,-0.282992
 7,0.0000247,0.0000353,-0.0000725,0.0408454,-0.0263108,0.0000361,-0.024
 5308,0.1166172,-0.2840133,-0.0000839,0.0000283,-0.0001902,0.1194185,-0
 .0201526,0.0000325,-0.0204445,0.0372801,-2.9142736,0.0006335,0.0002019
 ,-0.0009125,-0.7298369,0.0002611,-0.0034645,-0.0000036,-0.7294081,-2.9
 142963,-0.0004279,-0.0002024,0.0014482,-0.7297958,0.0002378,0.003458,-
 0.0000279,-0.7294238\Polar=94.7863806,-0.0076126,9.3795953,-0.0001659,
 0.0138475,9.3923383\HyperPolar=-0.0896804,-0.8513373,0.0006912,25.8826
 995,-1.5720259,-0.0002172,-21.7253552,0.0001613,-26.0133542,21.6301101
 \PG=C01 [X(C1H3Cl2)]\NImag=1\\-0.15706987,-0.00011426,0.56787723,-0.00
 000163,-0.00018208,0.56775778,-0.00050720,0.00003563,0.00004043,0.0406
 4343,0.00005243,-0.17431464,-0.13928788,-0.00004482,0.18855251,0.00004
 610,-0.13925752,-0.19097356,-0.00004210,0.15809532,0.20742895,-0.00022
 062,0.00000399,-0.00002147,0.00332861,0.00000040,0.00000236,0.04151005
 ,0.00001626,-0.06629787,0.07687226,0.00000022,0.00647626,-0.01597865,-
 0.00001298,0.06572793,-0.00002428,0.07691884,-0.29912267,0.00000072,0.
 00153236,-0.02239896,0.00002185,-0.08749813,0.33069859,-0.00015607,0.0
 0007158,-0.00001781,0.00332727,0.00000589,0.00000144,0.00331748,0.0000
 0319,-0.00000266,0.04153524,0.00009396,-0.30740811,0.06246323,0.000005
 92,-0.02144101,-0.00013434,0.00000356,-0.00890210,0.00735085,-0.000081
 74,0.33989487,-0.00002051,0.06238557,-0.05789820,0.00000210,-0.0176556
 3,0.00550768,-0.00000359,0.02489425,-0.00697708,0.00001897,-0.07103881
 ,0.05652020,0.07897655,0.00003130,0.00001049,-0.02340217,-0.00322257,-
 0.00353694,-0.02397044,-0.00128490,0.00438072,-0.02400146,0.00434655,-
 0.00093298,0.04022281,0.00010124,-0.00992920,0.00006859,-0.00660357,0.
 00036393,-0.00136309,-0.00270864,0.00149824,0.00084775,0.00915533,-0.0
 0106909,0.00070651,0.00008622,0.00798618,0.00021901,0.00006900,-0.0098
 7986,-0.00711998,-0.00134394,0.00021794,0.00909442,0.00085649,-0.00110
 041,-0.00207446,0.00067821,0.00142216,-0.00001999,-0.00025618,0.008185
 12,0.07897719,-0.00002825,-0.00001000,-0.02338991,0.00320868,0.0035291
 4,-0.02396512,0.00127821,-0.00437634,-0.02402247,-0.00436826,0.0009360
 0,-0.04782528,-0.00003058,-0.00009902,0.04022561,-0.00014963,-0.009927
 32,0.00006588,0.00660661,0.00036295,-0.00136173,0.00271366,0.00149753,
 0.00084830,-0.00915425,-0.00107459,0.00070811,0.00004341,0.00114990,-0
 .00000357,-0.00005980,0.00799149,-0.00021869,0.00006621,-0.00988341,0.
 00711883,-0.00134025,0.00021797,-0.00909358,0.00085380,-0.00109948,0.0
 0207452,0.00068083,0.00142522,0.00009871,-0.00000359,0.00115503,0.0000
 2022,-0.00025701,0.00818464\\0.00000181,-0.00001582,-0.00000528,0.0000
 2025,-0.00001044,0.00000832,0.00000779,-0.00001925,0.00001677,-0.00002
 987,0.00002788,-0.00000259,-0.00002859,-0.00000248,-0.00000902,0.00002
 860,0.00002011,-0.00000822\\\@


 ALL MY ATTEMPTS TO ADAPT THE THEORETICAL FOUNDATIONS OF PHYSICS
 TO THESE NEW NOTIONS FAILED COMPLETELY. IT WAS AS IF THE GROUND HAD
 BEEN PULLED OUT FROM UNDER ONE WITH NO FIRM FOUNDATION TO BE SEEN ANYWHERE,
 UPON WHICH ONE COULD HAVE BUILT.  -- A.EINSTEIN
 Job cpu time:       0 days  0 hours  0 minutes  8.4 seconds.
 File lengths (MBytes):  RWF=     28 Int=      0 D2E=      0 Chk=      5 Scr=      1
 Normal termination of Gaussian 09 at Fri Mar 17 16:16:51 2017.
