 Entering Gaussian System, Link 0=g09
 Input=MeCl_ts_IRC_forward.gjf
 Output=MeCl_ts_IRC_forward.out
 Initial command:
 /n/sw/g09_D.01/g09/l1.exe "/scratch/ekwan_MeCl_ts_IRC_forward/Gau-57275.inp" -scrdir="/scratch/ekwan_MeCl_ts_IRC_forward/"
 Entering Link 1 = /n/sw/g09_D.01/g09/l1.exe PID=     57276.
  
 Copyright (c) 1988,1990,1992,1993,1995,1998,2003,2009,2013,
            Gaussian, Inc.  All Rights Reserved.
  
 This is part of the Gaussian(R) 09 program.  It is based on
 the Gaussian(R) 03 system (copyright 2003, Gaussian, Inc.),
 the Gaussian(R) 98 system (copyright 1998, Gaussian, Inc.),
 the Gaussian(R) 94 system (copyright 1995, Gaussian, Inc.),
 the Gaussian 92(TM) system (copyright 1992, Gaussian, Inc.),
 the Gaussian 90(TM) system (copyright 1990, Gaussian, Inc.),
 the Gaussian 88(TM) system (copyright 1988, Gaussian, Inc.),
 the Gaussian 86(TM) system (copyright 1986, Carnegie Mellon
 University), and the Gaussian 82(TM) system (copyright 1983,
 Carnegie Mellon University). Gaussian is a federally registered
 trademark of Gaussian, Inc.
  
 This software contains proprietary and confidential information,
 including trade secrets, belonging to Gaussian, Inc.
  
 This software is provided under written license and may be
 used, copied, transmitted, or stored only in accord with that
 written license.
  
 The following legend is applicable only to US Government
 contracts under FAR:
  
                    RESTRICTED RIGHTS LEGEND
  
 Use, reproduction and disclosure by the US Government is
 subject to restrictions as set forth in subparagraphs (a)
 and (c) of the Commercial Computer Software - Restricted
 Rights clause in FAR 52.227-19.
  
 Gaussian, Inc.
 340 Quinnipiac St., Bldg. 40, Wallingford CT 06492
  
  
 ---------------------------------------------------------------
 Warning -- This program may not be used in any manner that
 competes with the business of Gaussian, Inc. or will provide
 assistance to any competitor of Gaussian, Inc.  The licensee
 of this program is prohibited from giving any competitor of
 Gaussian, Inc. access to this program.  By using this program,
 the user acknowledges that Gaussian, Inc. is engaged in the
 business of creating and licensing software in the field of
 computational chemistry and represents and warrants to the
 licensee that it is not a competitor of Gaussian, Inc. and that
 it will not use this program in any manner prohibited above.
 ---------------------------------------------------------------
  

 Cite this work as:
 Gaussian 09, Revision D.01,
 M. J. Frisch, G. W. Trucks, H. B. Schlegel, G. E. Scuseria, 
 M. A. Robb, J. R. Cheeseman, G. Scalmani, V. Barone, B. Mennucci, 
 G. A. Petersson, H. Nakatsuji, M. Caricato, X. Li, H. P. Hratchian, 
 A. F. Izmaylov, J. Bloino, G. Zheng, J. L. Sonnenberg, M. Hada, 
 M. Ehara, K. Toyota, R. Fukuda, J. Hasegawa, M. Ishida, T. Nakajima, 
 Y. Honda, O. Kitao, H. Nakai, T. Vreven, J. A. Montgomery, Jr., 
 J. E. Peralta, F. Ogliaro, M. Bearpark, J. J. Heyd, E. Brothers, 
 K. N. Kudin, V. N. Staroverov, T. Keith, R. Kobayashi, J. Normand, 
 K. Raghavachari, A. Rendell, J. C. Burant, S. S. Iyengar, J. Tomasi, 
 M. Cossi, N. Rega, J. M. Millam, M. Klene, J. E. Knox, J. B. Cross, 
 V. Bakken, C. Adamo, J. Jaramillo, R. Gomperts, R. E. Stratmann, 
 O. Yazyev, A. J. Austin, R. Cammi, C. Pomelli, J. W. Ochterski, 
 R. L. Martin, K. Morokuma, V. G. Zakrzewski, G. A. Voth, 
 P. Salvador, J. J. Dannenberg, S. Dapprich, A. D. Daniels, 
 O. Farkas, J. B. Foresman, J. V. Ortiz, J. Cioslowski, 
 and D. J. Fox, Gaussian, Inc., Wallingford CT, 2013.
 
 ******************************************
 Gaussian 09:  EM64L-G09RevD.01 24-Apr-2013
                15-Mar-2017 
 ******************************************
 %mem=1GB
 --------------------------------------------------------------
 #p am1 IRC=(forward,calcfc,maxpoints=500,stepsize=1,recalc=10)
 --------------------------------------------------------------
 1/10=4,14=-1,18=10,22=1,26=1,38=1,39=1,42=500,44=3,71=10/1,23;
 2/12=2,17=6,18=5,29=1,40=1/2;
 3/5=2,16=1,25=1,41=700000,71=2,140=1/1,2,3;
 4/35=1/1;
 5/5=2,35=1,38=5/2;
 8/6=4,10=90,11=11/1;
 11/6=1,8=1,9=11,15=111,16=1/1,2,10;
 10/6=1,13=1/2;
 6/7=2,8=2,9=2,10=2,28=1/1;
 7/10=1,18=20,25=1/1,2,3,16;
 1/10=4,14=-1,18=10,22=1,26=1,39=1,42=500,44=3,71=10/23(2);
 2/29=1/2;
 99/5=20/99;
 2/29=1/2;
 3/5=2,16=1,25=1,41=700000,71=2,135=20,140=1/1,2,3;
 4/5=5,16=3,35=1/1;
 5/5=2,35=1,38=5/2;
 8/6=4,10=90,11=11/1;
 11/6=1,8=1,9=11,15=111,16=1/1,2,10;
 10/6=1,13=1/2;
 7/10=1,18=20,25=1/1,2,3,16;
 1/14=-1,18=10,22=1,26=1,39=1,42=500,44=3,71=10/23(-8);
 2/29=1/2;
 6/7=2,8=2,9=2,10=2,19=2,28=1/1;
 99/5=20,9=1/99;
 Leave Link    1 at Wed Mar 15 20:07:18 2017, MaxMem=   134217728 cpu:         0.0
 (Enter /n/sw/g09_D.01/g09/l101.exe)
 -------------------------
 Cl- + CH3Cl IRC (forward)
 -------------------------
 Symbolic Z-matrix:
 Charge = -1 Multiplicity = 1
 C                    -0.00018   0.        0. 
 H                     0.00043  -0.75229  -0.79859 
 H                     0.00044  -0.31546   1.0508 
 H                     0.00044   1.06775  -0.2522 
 Cl                    2.15389  0.        0. 
 Cl                   -2.1539   0.        0. 
 
 NAtoms=      6 NQM=        6 NQMF=       0 NMMI=      0 NMMIF=      0
                NMic=       0 NMicF=      0.
                    Isotopes and Nuclear Properties:
 (Nuclear quadrupole moments (NQMom) in fm**2, nuclear magnetic moments (NMagM)
  in nuclear magnetons)

  Atom         1           2           3           4           5           6
 IAtWgt=          12           1           1           1          35          35
 AtmWgt=  12.0000000   1.0078250   1.0078250   1.0078250  34.9688527  34.9688527
 NucSpn=           0           1           1           1           3           3
 AtZEff=   0.0000000   0.0000000   0.0000000   0.0000000   0.0000000   0.0000000
 NQMom=    0.0000000   0.0000000   0.0000000   0.0000000  -8.1650000  -8.1650000
 NMagM=    0.0000000   2.7928460   2.7928460   2.7928460   0.8218740   0.8218740
 AtZNuc=   6.0000000   1.0000000   1.0000000   1.0000000  17.0000000  17.0000000
 Leave Link  101 at Wed Mar 15 20:07:19 2017, MaxMem=   134217728 cpu:         0.2
 (Enter /n/sw/g09_D.01/g09/l123.exe)
 IRC-IRC-IRC-IRC-IRC-IRC-IRC-IRC-IRC-IRC-IRC-IRC-IRC-IRC-IRC-IRC-IRC-IRC
 ------------------------------------------------------------------------
 INPUT DATA FOR L123
 ------------------------------------------------------------------------
 GENERAL PARAMETERS:
 Rxn path following direction = Forward
 Maximum points per path      = 500
 Step size                    =   0.010 bohr
 Integration scheme           = HPC                                 
    Redo corrector integration= Yes                                 
    DWI Weight Power          =  2
    DWI will use Hessian update vectors when possible.
    Max correction cycles     =  20
 Initial Hessian              = CalcFC
 Hessian evaluation           = Analytic every  10 predictor steps
                              = Update at all corrector steps
 Hessian updating method      = Bofill                              
 ------------------------------------------------------------------------
 IRC-IRC-IRC-IRC-IRC-IRC-IRC-IRC-IRC-IRC-IRC-IRC-IRC-IRC-IRC-IRC-IRC-IRC
 Leave Link  123 at Wed Mar 15 20:07:19 2017, MaxMem=   134217728 cpu:         0.0
 (Enter /n/sw/g09_D.01/g09/l202.exe)
                          Input orientation:                          
 ---------------------------------------------------------------------
 Center     Atomic      Atomic             Coordinates (Angstroms)
 Number     Number       Type             X           Y           Z
 ---------------------------------------------------------------------
      1          6           0       -0.000176    0.000003    0.000003
      2          1           0        0.000425   -0.752288   -0.798592
      3          1           0        0.000436   -0.315461    1.050801
      4          1           0        0.000439    1.067753   -0.252197
      5         17           0        2.153891   -0.000001   -0.000001
      6         17           0       -2.153905   -0.000001   -0.000001
 ---------------------------------------------------------------------
                    Distance matrix (angstroms):
                    1          2          3          4          5
     1  C    0.000000
     2  H    1.097131   0.000000
     3  H    1.097130   1.900282   0.000000
     4  H    1.097130   1.900289   1.900285   0.000000
     5  Cl   2.154067   2.416837   2.416830   2.416828   0.000000
     6  Cl   2.153729   2.417606   2.417620   2.417623   4.307796
                    6
     6  Cl   0.000000
 Symmetry turned off by external request.
 This structure is nearly, but not quite of a higher symmetry.
 Consider Symm=Loose if the higher symmetry is desired.
 Stoichiometry    CH3Cl2(1-)
 Framework group  C1[X(CH3Cl2)]
 Deg. of freedom    12
 Full point group                 C1      NOp   1
 Rotational constants (GHZ):    138.8655089      1.5489119      1.5489118
 Leave Link  202 at Wed Mar 15 20:07:19 2017, MaxMem=   134217728 cpu:         0.0
 (Enter /n/sw/g09_D.01/g09/l301.exe)
 Standard basis: VSTO-6G (5D, 7F)
 Ernie: Thresh=  0.10000D-02 Tol=  0.10000D-05 Strict=F.
  NNHCO=     0 NNPyr=     0 NCTC=     0               EPep=         0.000000000
    EC=        31.366153347  ECS=         0.473195195   EG=         0.093088288
   EHC=         0.000000000  EAt=       -33.052414446  AtH=         0.613817032
 EPDDG=         0.000000000  ECC=        31.932436829 EAtT=        33.666231478
    15 basis functions,    90 primitive gaussians,    15 cartesian basis functions
    11 alpha electrons       11 beta electrons
       nuclear repulsion energy        65.5986683076 Hartrees.
 IExCor=    0 DFT=F Ex=HF Corr=None ExCW=0 ScaHFX=  1.000000
 ScaDFX=  1.000000  1.000000  1.000000  1.000000 ScalE2=  1.000000  1.000000
 IRadAn=      0 IRanWt=     -1 IRanGd=            0 ICorTp=0 IEmpDi=  4
 Integral buffers will be    131072 words long.
 Regular integral format.
 Two-electron integral symmetry is turned off.
 Leave Link  301 at Wed Mar 15 20:07:19 2017, MaxMem=   134217728 cpu:         0.1
 (Enter /n/sw/g09_D.01/g09/l302.exe)
 Do NDO integrals.
 NPDir=0 NMtPBC=     1 NCelOv=     1 NCel=       1 NClECP=     1 NCelD=      1
         NCelK=      1 NCelE2=     1 NClLst=     1 CellRange=     0.0.
 One-electron integrals computed using PRISM.
 NBasis=    15 RedAO= F EigKep=  0.00D+00  NBF=    15
 NBsUse=    15 1.00D-04 EigRej=  0.00D+00 NBFU=    15
 Leave Link  302 at Wed Mar 15 20:07:19 2017, MaxMem=   134217728 cpu:         0.1
 (Enter /n/sw/g09_D.01/g09/l303.exe)
 DipDrv:  MaxL=1.
 Leave Link  303 at Wed Mar 15 20:07:20 2017, MaxMem=   134217728 cpu:         0.0
 (Enter /n/sw/g09_D.01/g09/l401.exe)
 Simple Huckel Guess.
 JPrj=0 DoOrth=F DoCkMO=F.
 Leave Link  401 at Wed Mar 15 20:07:20 2017, MaxMem=   134217728 cpu:         0.1
 (Enter /n/sw/g09_D.01/g09/l502.exe)
 Closed shell SCF:
 Using DIIS extrapolation, IDIIS=  1040.
 Overlap will be assumed to be unity.
 Two-electron integral symmetry not used.
 Keep J ints in memory in canonical form, NReq=884770.
 IVT=       79028 IEndB=       79028 NGot=   134217728 MDV=   134138140
 LenX=   134138140 LenY=   134137258
 Requested convergence on RMS density matrix=1.00D-08 within 128 cycles.
 Requested convergence on MAX density matrix=1.00D-06.
 Requested convergence on             energy=1.00D-06.
 No special actions if energy rises.
 FoFCou: FMM=F IPFlag=           0 FMFlag=           0 FMFlg1=           0
         NFxFlg=           0 DoJE=F BraDBF=F KetDBF=F FulRan=T
         wScrn=  0.000000 ICntrl=     600 IOpCl=  2 I1Cent=           0 NGrid=           0
         NMat0=    1 NMatS0=     33 NMatT0=    0 NMatD0=    1 NMtDS0=    0 NMtDT0=    0
 Symmetry not used in FoFCou.

 Cycle   1  Pass 1  IDiag  1:
 E= 0.697520225561732E-01
 DIIS: error= 6.80D-02 at cycle   1 NSaved=   1.
 NSaved= 1 IEnMin= 1 EnMin= 0.697520225561732E-01 IErMin= 1 ErrMin= 6.80D-02
 ErrMax= 6.80D-02  0.00D+00 EMaxC= 1.00D-01 BMatC= 7.46D-02 BMatP= 7.46D-02
 IDIUse=3 WtCom= 3.20D-01 WtEn= 6.80D-01
 Coeff-Com:  0.100D+01
 Coeff-En:   0.100D+01
 Coeff:      0.100D+01
 GapD=    2.000 DampG=2.000 DampE=0.500 DampFc=1.0000 IDamp=-1.
 RMSDP=2.16D-02 MaxDP=1.29D-01              OVMax= 0.00D+00

 Cycle   2  Pass 1  IDiag  1:
 E=-0.824644848788694E-01 Delta-E=       -0.152216507435 Rises=F Damp=F
 DIIS: error= 1.18D-02 at cycle   2 NSaved=   2.
 NSaved= 2 IEnMin= 2 EnMin=-0.824644848788694E-01 IErMin= 2 ErrMin= 1.18D-02
 ErrMax= 1.18D-02  0.00D+00 EMaxC= 1.00D-01 BMatC= 3.08D-03 BMatP= 7.46D-02
 IDIUse=3 WtCom= 8.82D-01 WtEn= 1.18D-01
 Coeff-Com: -0.244D+00 0.124D+01
 Coeff-En:   0.000D+00 0.100D+01
 Coeff:     -0.215D+00 0.122D+01
 RMSDP=5.53D-03 MaxDP=3.93D-02 DE=-1.52D-01 OVMax= 0.00D+00

 Cycle   3  Pass 1  IDiag  3:
 E=-0.892714101340175E-01 Delta-E=       -0.006806925255 Rises=F Damp=F
 DIIS: error= 1.16D-03 at cycle   3 NSaved=   3.
 NSaved= 3 IEnMin= 3 EnMin=-0.892714101340175E-01 IErMin= 3 ErrMin= 1.16D-03
 ErrMax= 1.16D-03  0.00D+00 EMaxC= 1.00D-01 BMatC= 3.35D-05 BMatP= 3.08D-03
 IDIUse=3 WtCom= 9.88D-01 WtEn= 1.16D-02
 Coeff-Com:  0.911D-01-0.514D+00 0.142D+01
 Coeff-En:   0.000D+00 0.000D+00 0.100D+01
 Coeff:      0.900D-01-0.508D+00 0.142D+01
 Gap=     0.370 Goal=   None    Shift=    0.000
 RMSDP=1.33D-03 MaxDP=6.45D-03 DE=-6.81D-03 OVMax= 1.14D-02

 Cycle   4  Pass 1  IDiag  3:
 E=-0.894575969607843E-01 Delta-E=       -0.000186186827 Rises=F Damp=F
 DIIS: error= 2.02D-04 at cycle   4 NSaved=   4.
 NSaved= 4 IEnMin= 4 EnMin=-0.894575969607843E-01 IErMin= 4 ErrMin= 2.02D-04
 ErrMax= 2.02D-04  0.00D+00 EMaxC= 1.00D-01 BMatC= 1.54D-06 BMatP= 3.35D-05
 IDIUse=3 WtCom= 9.98D-01 WtEn= 2.02D-03
 Coeff-Com: -0.193D-01 0.107D+00-0.439D+00 0.135D+01
 Coeff-En:   0.000D+00 0.000D+00 0.000D+00 0.100D+01
 Coeff:     -0.193D-01 0.107D+00-0.438D+00 0.135D+01
 Gap=     0.370 Goal=   None    Shift=    0.000
 RMSDP=3.68D-04 MaxDP=1.45D-03 DE=-1.86D-04 OVMax= 3.57D-03

 Cycle   5  Pass 1  IDiag  3:
 E=-0.894688436062836E-01 Delta-E=       -0.000011246645 Rises=F Damp=F
 DIIS: error= 4.68D-05 at cycle   5 NSaved=   5.
 NSaved= 5 IEnMin= 5 EnMin=-0.894688436062836E-01 IErMin= 5 ErrMin= 4.68D-05
 ErrMax= 4.68D-05  0.00D+00 EMaxC= 1.00D-01 BMatC= 7.44D-08 BMatP= 1.54D-06
 IDIUse=1 WtCom= 1.00D+00 WtEn= 0.00D+00
 Coeff-Com:  0.483D-02-0.250D-01 0.119D+00-0.593D+00 0.149D+01
 Coeff:      0.483D-02-0.250D-01 0.119D+00-0.593D+00 0.149D+01
 Gap=     0.370 Goal=   None    Shift=    0.000
 RMSDP=9.31D-05 MaxDP=3.61D-04 DE=-1.12D-05 OVMax= 8.69D-04

 Cycle   6  Pass 1  IDiag  3:
 E=-0.894693635813439E-01 Delta-E=       -0.000000519975 Rises=F Damp=F
 DIIS: error= 8.07D-06 at cycle   6 NSaved=   6.
 NSaved= 6 IEnMin= 6 EnMin=-0.894693635813439E-01 IErMin= 6 ErrMin= 8.07D-06
 ErrMax= 8.07D-06  0.00D+00 EMaxC= 1.00D-01 BMatC= 1.52D-09 BMatP= 7.44D-08
 IDIUse=1 WtCom= 1.00D+00 WtEn= 0.00D+00
 Coeff-Com: -0.603D-03 0.234D-02-0.225D-01 0.206D+00-0.654D+00 0.147D+01
 Coeff:     -0.603D-03 0.234D-02-0.225D-01 0.206D+00-0.654D+00 0.147D+01
 Gap=     0.370 Goal=   None    Shift=    0.000
 RMSDP=1.03D-05 MaxDP=4.92D-05 DE=-5.20D-07 OVMax= 4.44D-05

 Cycle   7  Pass 1  IDiag  3:
 E=-0.894693722698037E-01 Delta-E=       -0.000000008688 Rises=F Damp=F
 DIIS: error= 1.52D-06 at cycle   7 NSaved=   7.
 NSaved= 7 IEnMin= 7 EnMin=-0.894693722698037E-01 IErMin= 7 ErrMin= 1.52D-06
 ErrMax= 1.52D-06  0.00D+00 EMaxC= 1.00D-01 BMatC= 4.13D-11 BMatP= 1.52D-09
 IDIUse=1 WtCom= 1.00D+00 WtEn= 0.00D+00
 Coeff-Com: -0.204D-03 0.137D-02-0.189D-02-0.291D-01 0.126D+00-0.461D+00
 Coeff-Com:  0.137D+01
 Coeff:     -0.204D-03 0.137D-02-0.189D-02-0.291D-01 0.126D+00-0.461D+00
 Coeff:      0.137D+01
 Gap=     0.370 Goal=   None    Shift=    0.000
 RMSDP=1.62D-06 MaxDP=8.87D-06 DE=-8.69D-09 OVMax= 9.97D-06

 Cycle   8  Pass 1  IDiag  3:
 E=-0.894693724980300E-01 Delta-E=       -0.000000000228 Rises=F Damp=F
 DIIS: error= 3.67D-07 at cycle   8 NSaved=   8.
 NSaved= 8 IEnMin= 8 EnMin=-0.894693724980300E-01 IErMin= 8 ErrMin= 3.67D-07
 ErrMax= 3.67D-07  0.00D+00 EMaxC= 1.00D-01 BMatC= 1.38D-12 BMatP= 4.13D-11
 IDIUse=1 WtCom= 1.00D+00 WtEn= 0.00D+00
 Coeff-Com:  0.322D-04-0.308D-03-0.565D-03 0.202D-01-0.750D-01 0.253D+00
 Coeff-Com: -0.749D+00 0.155D+01
 Coeff:      0.322D-04-0.308D-03-0.565D-03 0.202D-01-0.750D-01 0.253D+00
 Coeff:     -0.749D+00 0.155D+01
 Gap=     0.370 Goal=   None    Shift=    0.000
 RMSDP=3.35D-07 MaxDP=2.95D-06 DE=-2.28D-10 OVMax= 3.28D-06

 Cycle   9  Pass 1  IDiag  3:
 E=-0.894693725055333E-01 Delta-E=       -0.000000000008 Rises=F Damp=F
 DIIS: error= 4.34D-08 at cycle   9 NSaved=   9.
 NSaved= 9 IEnMin= 9 EnMin=-0.894693725055333E-01 IErMin= 9 ErrMin= 4.34D-08
 ErrMax= 4.34D-08  0.00D+00 EMaxC= 1.00D-01 BMatC= 2.09D-14 BMatP= 1.38D-12
 IDIUse=1 WtCom= 1.00D+00 WtEn= 0.00D+00
 Coeff-Com:  0.663D-05-0.262D-04 0.235D-03-0.215D-02 0.689D-02-0.202D-01
 Coeff-Com:  0.555D-01-0.127D+00 0.109D+01
 Coeff:      0.663D-05-0.262D-04 0.235D-03-0.215D-02 0.689D-02-0.202D-01
 Coeff:      0.555D-01-0.127D+00 0.109D+01
 Gap=     0.370 Goal=   None    Shift=    0.000
 RMSDP=2.72D-08 MaxDP=2.16D-07 DE=-7.50D-12 OVMax= 2.42D-07

 Cycle  10  Pass 1  IDiag  3:
 E=-0.894693725056186E-01 Delta-E=        0.000000000000 Rises=F Damp=F
 DIIS: error= 1.18D-08 at cycle  10 NSaved=  10.
 NSaved=10 IEnMin=10 EnMin=-0.894693725056186E-01 IErMin=10 ErrMin= 1.18D-08
 ErrMax= 1.18D-08  0.00D+00 EMaxC= 1.00D-01 BMatC= 1.63D-15 BMatP= 2.09D-14
 IDIUse=1 WtCom= 1.00D+00 WtEn= 0.00D+00
 Coeff-Com:  0.258D-08-0.241D-05-0.224D-04 0.410D-03-0.146D-02 0.486D-02
 Coeff-Com: -0.145D-01 0.333D-01-0.457D+00 0.143D+01
 Coeff:      0.258D-08-0.241D-05-0.224D-04 0.410D-03-0.146D-02 0.486D-02
 Coeff:     -0.145D-01 0.333D-01-0.457D+00 0.143D+01
 Gap=     0.370 Goal=   None    Shift=    0.000
 RMSDP=1.08D-08 MaxDP=8.21D-08 DE=-8.53D-14 OVMax= 9.15D-08

 Cycle  11  Pass 1  IDiag  3:
 E=-0.894693725055902E-01 Delta-E=        0.000000000000 Rises=F Damp=F
 DIIS: error= 1.16D-09 at cycle  11 NSaved=  11.
 NSaved=11 IEnMin=10 EnMin=-0.894693725056186E-01 IErMin=11 ErrMin= 1.16D-09
 ErrMax= 1.16D-09  0.00D+00 EMaxC= 1.00D-01 BMatC= 3.00D-17 BMatP= 1.63D-15
 IDIUse=1 WtCom= 1.00D+00 WtEn= 0.00D+00
 Coeff-Com: -0.439D-06 0.335D-05-0.355D-06-0.135D-03 0.531D-03-0.196D-02
 Coeff-Com:  0.612D-02-0.134D-01 0.222D+00-0.863D+00 0.165D+01
 Coeff:     -0.439D-06 0.335D-05-0.355D-06-0.135D-03 0.531D-03-0.196D-02
 Coeff:      0.612D-02-0.134D-01 0.222D+00-0.863D+00 0.165D+01
 Gap=     0.370 Goal=   None    Shift=    0.000
 RMSDP=2.14D-09 MaxDP=1.07D-08 DE= 2.84D-14 OVMax= 1.53D-08

 Cycle  12  Pass 2  IDiag  1:
 SCF Done:  E(RAM1) = -0.894693725056E-01 A.U. after   12 cycles
            NFock= 11  Conv=0.21D-08     -V/T= 0.9930
 KE=-1.277709486572D+01 PE=-1.084950703001D+02 EE= 5.558402748572D+01
 Leave Link  502 at Wed Mar 15 20:07:20 2017, MaxMem=   134217728 cpu:         0.1
 (Enter /n/sw/g09_D.01/g09/l801.exe)
 Range of M.O.s used for correlation:     1    15
 NBasis=    15 NAE=    11 NBE=    11 NFC=     0 NFV=     0
 NROrb=     15 NOA=    11 NOB=    11 NVA=     4 NVB=     4
 Leave Link  801 at Wed Mar 15 20:07:20 2017, MaxMem=   134217728 cpu:         0.1
 (Enter /n/sw/g09_D.01/g09/l1101.exe)
 Using compressed storage, NAtomX=     6.
 Will process      7 centers per pass.
 Leave Link 1101 at Wed Mar 15 20:07:21 2017, MaxMem=   134217728 cpu:         0.1
 (Enter /n/sw/g09_D.01/g09/l1102.exe)
 Symmetrizing basis deriv contribution to polar:
 IMax=3 JMax=2 DiffMx= 0.00D+00
 Leave Link 1102 at Wed Mar 15 20:07:21 2017, MaxMem=   134217728 cpu:         0.0
 (Enter /n/sw/g09_D.01/g09/l1110.exe)
 Forming Gx(P) for the SCF density, NAtomX=     6.
 Integral derivatives from FoFJK, PRISM(SPDF).
 Do as many integral derivatives as possible in FoFJK.
 G2DrvN: MDV=     134158685.
 G2DrvN: will do     7 centers at a time, making    1 passes.
 Calling FoFCou, ICntrl=  3107 FMM=F I1Cent=   0 AccDes= 0.00D+00.
 FoFJK:  IHMeth= 8 ICntrl=    3107 DoSepK=F KAlg= 0 I1Cent=   0 FoldK=F
 IRaf=         0 NMat=   1 IRICut=       1 DoRegI=T DoRafI=F ISym2E= 0.
 FoFCou: FMM=F IPFlag=           0 FMFlag=      100000 FMFlg1=           0
         NFxFlg=           0 DoJE=F BraDBF=F KetDBF=F FulRan=T
         wScrn=  0.000000 ICntrl=    3107 IOpCl=  0 I1Cent=           0 NGrid=           0
         NMat0=    1 NMatS0=      1 NMatT0=    0 NMatD0=    1 NMtDS0=    0 NMtDT0=    0
 Symmetry not used in FoFCou.
 End of G2Drv F.D. properties file   721 does not exist.
 End of G2Drv F.D. properties file   722 does not exist.
 End of G2Drv F.D. properties file   788 does not exist.
 Leave Link 1110 at Wed Mar 15 20:07:21 2017, MaxMem=   134217728 cpu:         0.1
 (Enter /n/sw/g09_D.01/g09/l1002.exe)
 Minotr:  Closed shell wavefunction.
          IDoAtm=111111
          Direct CPHF calculation.
          Differentiating once with respect to nuclear coordinates.
          Electric field/nuclear overlap derivatives assumed to be zero.
          Requested convergence is 1.0D-08 RMS, and 1.0D-07 maximum.
          NewPWx=T KeepS1=F KeepF1=F KeepIn=T MapXYZ=F SortEE=F KeepMc=T.
          MDV=     134158758 using IRadAn=       2.
 Keep J ints in memory in canonical form, NReq=867888.
 FoFCou: FMM=F IPFlag=           0 FMFlag=           0 FMFlg1=           0
         NFxFlg=           0 DoJE=F BraDBF=F KetDBF=F FulRan=T
         wScrn=  0.000000 ICntrl=     600 IOpCl=  2 I1Cent=           0 NGrid=           0
         NMat0=    1 NMatS0=     33 NMatT0=    0 NMatD0=    1 NMtDS0=    0 NMtDT0=    0
 Symmetry not used in FoFCou.
          Solving linear equations separately, MaxMat=       0.
          There are    21 degrees of freedom in the 1st order CPHF.  IDoFFX=5 NUNeed=    21.
 LinEq1:  Iter=  0 NonCon=    18 RMS=5.69D-02 Max=3.10D-01 NDo=    18
 AX will form    21 AO Fock derivatives at one time.
 LinEq1:  Iter=  1 NonCon=    18 RMS=5.26D-03 Max=2.61D-02 NDo=    21
 LinEq1:  Iter=  2 NonCon=    18 RMS=2.43D-04 Max=7.91D-04 NDo=    21
 LinEq1:  Iter=  3 NonCon=    18 RMS=1.77D-05 Max=6.83D-05 NDo=    21
 LinEq1:  Iter=  4 NonCon=    18 RMS=1.96D-06 Max=1.01D-05 NDo=    21
 LinEq1:  Iter=  5 NonCon=    18 RMS=1.67D-07 Max=5.55D-07 NDo=    21
 LinEq1:  Iter=  6 NonCon=     0 RMS=9.91D-09 Max=4.53D-08 NDo=    21
 Linear equations converged to 1.000D-08 1.000D-07 after     6 iterations.
 End of Minotr F.D. properties file   721 does not exist.
 End of Minotr F.D. properties file   722 does not exist.
 End of Minotr F.D. properties file   788 does not exist.
 Leave Link 1002 at Wed Mar 15 20:07:21 2017, MaxMem=   134217728 cpu:         0.1
 (Enter /n/sw/g09_D.01/g09/l601.exe)
 Copying SCF densities to generalized density rwf, IOpCl= 0 IROHF=0.

 **********************************************************************

            Population analysis using the SCF density.

 **********************************************************************

 Alpha  occ. eigenvalues --   -1.06466  -1.05472  -0.87413  -0.37619  -0.37619
 Alpha  occ. eigenvalues --   -0.30676  -0.21546  -0.21546  -0.20321  -0.20321
 Alpha  occ. eigenvalues --   -0.16206
 Alpha virt. eigenvalues --    0.20826   0.31011   0.32684   0.32684
          Condensed to atoms (all electrons):
               1          2          3          4          5          6
     1  C    3.895091   0.000000   0.000000   0.000000   0.000000   0.000000
     2  H    0.000000   0.894370   0.000000   0.000000   0.000000   0.000000
     3  H    0.000000   0.000000   0.894370   0.000000   0.000000   0.000000
     4  H    0.000000   0.000000   0.000000   0.894369   0.000000   0.000000
     5  Cl   0.000000   0.000000   0.000000   0.000000   7.711191   0.000000
     6  Cl   0.000000   0.000000   0.000000   0.000000   0.000000   7.710609
 Mulliken charges:
               1
     1  C    0.104909
     2  H    0.105630
     3  H    0.105630
     4  H    0.105631
     5  Cl  -0.711191
     6  Cl  -0.710609
 Sum of Mulliken charges =  -1.00000
 Mulliken charges with hydrogens summed into heavy atoms:
               1
     1  C    0.421800
     5  Cl  -0.711191
     6  Cl  -0.710609
 APT charges:
               1
     1  C    0.104909
     2  H    0.105630
     3  H    0.105630
     4  H    0.105631
     5  Cl  -0.711191
     6  Cl  -0.710609
 Sum of APT charges =  -1.00000
 APT charges with hydrogens summed into heavy atoms:
               1
     1  C    0.421800
     5  Cl  -0.711191
     6  Cl  -0.710609
 Charge=             -1.0000 electrons
 Dipole moment (field-independent basis, Debye):
    X=             -0.0052    Y=              0.0000    Z=              0.0000  Tot=              0.0052
 N-N= 6.559866830758D+01 E-N=-1.084950703050D+02  KE=-1.277709486572D+01
  Exact polarizability:   0.000   0.000   0.000   0.000   0.000   0.000
 Approx polarizability:  51.224   0.000   4.685   0.000   0.000   4.684
 Leave Link  601 at Wed Mar 15 20:07:21 2017, MaxMem=   134217728 cpu:         0.1
 (Enter /n/sw/g09_D.01/g09/l701.exe)
 Compute integral second derivatives.
 ... and contract with generalized density number  0.
 Leave Link  701 at Wed Mar 15 20:07:22 2017, MaxMem=   134217728 cpu:         0.1
 (Enter /n/sw/g09_D.01/g09/l702.exe)
 L702 exits ... SP integral derivatives will be done elsewhere.
 Leave Link  702 at Wed Mar 15 20:07:22 2017, MaxMem=   134217728 cpu:         0.0
 (Enter /n/sw/g09_D.01/g09/l703.exe)
 Compute integral second derivatives, UseDBF=F ICtDFT=           0.
 Integral derivatives from FoFJK, PRISM(SPDF).
 Calling FoFJK, ICntrl=    100147 FMM=F ISym2X=0 I1Cent= 0 IOpClX= 0 NMat=1 NMatS=1 NMatT=0.
 FoFJK:  IHMeth= 8 ICntrl=  100147 DoSepK=F KAlg= 0 I1Cent=   0 FoldK=F
 IRaf=         0 NMat=   1 IRICut=       1 DoRegI=T DoRafI=F ISym2E= 0.
 FoFCou: FMM=F IPFlag=           0 FMFlag=      100000 FMFlg1=         800
         NFxFlg=           0 DoJE=F BraDBF=F KetDBF=F FulRan=T
         wScrn=  0.000000 ICntrl=  100147 IOpCl=  0 I1Cent=           0 NGrid=           0
         NMat0=    1 NMatS0=      1 NMatT0=    0 NMatD0=    1 NMtDS0=    0 NMtDT0=    0
 Symmetry not used in FoFCou.
 Leave Link  703 at Wed Mar 15 20:07:22 2017, MaxMem=   134217728 cpu:         0.1
 (Enter /n/sw/g09_D.01/g09/l716.exe)
 Dipole        =-2.03533273D-03 4.47172365D-06 4.75826726D-06
 Polarizability= 0.00000000D+00 0.00000000D+00 0.00000000D+00
                 0.00000000D+00 0.00000000D+00 0.00000000D+00
 -------------------------------------------------------------------
 Center     Atomic                   Forces (Hartrees/Bohr)
 Number     Number              X              Y              Z
 -------------------------------------------------------------------
      1        6          -0.000022358   -0.000000649   -0.000000287
      2        1          -0.000039316   -0.000053431   -0.000057403
      3        1          -0.000040103   -0.000022432    0.000075747
      4        1          -0.000040318    0.000076310   -0.000018202
      5       17           0.000160936   -0.000000090   -0.000000061
      6       17          -0.000018841    0.000000292    0.000000206
 -------------------------------------------------------------------
 Cartesian Forces:  Max     0.000160936 RMS     0.000052747
 Z-matrix is all fixed cartesians, so copy forces.
 Force constants in Cartesian coordinates: 
                1             2             3             4             5 
      1 -0.840538D-01
      2  0.265724D-05  0.571912D+00
      3  0.185970D-05  0.000000D+00  0.571910D+00
      4 -0.179709D-02  0.989023D-04  0.104994D-03  0.410090D-01
      5  0.106928D-03 -0.174599D+00 -0.139688D+00 -0.977548D-04  0.189863D+00
      6  0.113576D-03 -0.139688D+00 -0.191296D+00 -0.103811D-03  0.159163D+00
      7 -0.179741D-02  0.421977D-04 -0.140607D-03  0.313358D-02  0.000000D+00
      8  0.455463D-04 -0.661487D-01  0.770761D-01 -0.341176D-05  0.630920D-02
      9 -0.152451D-03  0.770761D-01 -0.299747D+00 -0.477379D-05  0.174380D-02
     10 -0.179736D-02 -0.143553D-03  0.338958D-04  0.313347D-02  0.557319D-05
     11 -0.155714D-03 -0.308097D+00  0.626130D-01 -0.460130D-05 -0.218565D-01
     12  0.366081D-04  0.626129D-01 -0.577986D-01 -0.370904D-05 -0.180054D-01
     13  0.446920D-01  0.000000D+00  0.000000D+00 -0.227398D-01 -0.369186D-02
     14  0.000000D+00 -0.115088D-01  0.000000D+00 -0.661753D-02  0.140715D-03
     15  0.000000D+00  0.000000D+00 -0.115089D-01 -0.702488D-02 -0.160842D-02
     16  0.447531D-01  0.000000D+00  0.000000D+00 -0.227390D-01  0.367806D-02
     17  0.000000D+00 -0.115597D-01  0.000000D+00  0.662440D-02  0.142563D-03
     18  0.000000D+00  0.000000D+00 -0.115597D-01  0.703218D-02 -0.160404D-02
                6             7             8             9            10 
      6  0.208888D+00
      7  0.554998D-05  0.410088D-01
      8 -0.163220D-01 -0.416936D-04  0.662940D-01
      9 -0.228290D-01  0.139319D-03 -0.878212D-01  0.332458D+00
     10  0.000000D+00  0.313355D-02  0.539098D-05 -0.203457D-05  0.410089D-01
     11  0.603708D-04 -0.239600D-05 -0.923181D-02  0.722874D-02  0.142303D-03
     12  0.533724D-02  0.531170D-05  0.252945D-01 -0.728770D-02 -0.335098D-04
     13 -0.391911D-02 -0.227398D-01 -0.154813D-02  0.515707D-02 -0.227399D-01
     14 -0.160843D-02 -0.277496D-02  0.138949D-02  0.887512D-03  0.939260D-02
     15 -0.515545D-04  0.924350D-02  0.887480D-03 -0.130040D-02 -0.221848D-02
     16  0.390441D-02 -0.227385D-01  0.154230D-02 -0.513713D-02 -0.227385D-01
     17 -0.160403D-02  0.277780D-02  0.138785D-02  0.884994D-03 -0.940231D-02
     18 -0.491676D-04 -0.925307D-02  0.885041D-03 -0.129442D-02  0.222074D-02
               11            12            13            14            15 
     11  0.341972D+00
     12 -0.713420D-01  0.567798D-01
     13  0.524034D-02 -0.123767D-02  0.587117D-01
     14 -0.139658D-02  0.720957D-03  0.000000D+00  0.935430D-02
     15  0.720984D-03  0.148565D-02  0.000000D+00  0.000000D+00  0.935427D-02
     16 -0.521993D-02  0.123297D-02 -0.351842D-01  0.000000D+00  0.000000D+00
     17 -0.139029D-02  0.718957D-03  0.000000D+00  0.202087D-02  0.000000D+00
     18  0.718922D-03  0.148371D-02  0.000000D+00  0.000000D+00  0.202087D-02
               16            17            18 
     16  0.586471D-01
     17  0.000000D+00  0.939870D-02
     18  0.000000D+00  0.000000D+00  0.939869D-02
 Leave Link  716 at Wed Mar 15 20:07:22 2017, MaxMem=   134217728 cpu:         0.1
 (Enter /n/sw/g09_D.01/g09/l123.exe)
 IRC-IRC-IRC-IRC-IRC-IRC-IRC-IRC-IRC-IRC-IRC-IRC-IRC-IRC-IRC-IRC-IRC-IRC
          ******** Start new reaction path calculation ********
 Current Structure is TS -> form Hessian eigenvectors.
                            Diagonalizing Hessian.
 Supplied step size of   0.0100 bohr.
    Integration on MW PES will use step size of   0.0358 sqrt(amu)*bohr.
 Point Number:   0          Path Number:   1
 Calculating another point on the path.
 Point Number  1 in FORWARD path direction.
 Using LQA Reaction Path Following.
 IRC-IRC-IRC-IRC-IRC-IRC-IRC-IRC-IRC-IRC-IRC-IRC-IRC-IRC-IRC-IRC-IRC-IRC
 Leave Link  123 at Wed Mar 15 20:07:22 2017, MaxMem=   134217728 cpu:         0.0
 (Enter /n/sw/g09_D.01/g09/l202.exe)
                          Input orientation:                          
 ---------------------------------------------------------------------
 Center     Atomic      Atomic             Coordinates (Angstroms)
 Number     Number       Type             X           Y           Z
 ---------------------------------------------------------------------
      1          6           0       -0.005233    0.000003    0.000003
      2          1           0        0.000970   -0.752286   -0.798590
      3          1           0        0.000981   -0.315460    1.050799
      4          1           0        0.000984    1.067751   -0.252196
      5         17           0        2.154753   -0.000001   -0.000001
      6         17           0       -2.153042   -0.000001   -0.000001
 ---------------------------------------------------------------------
                    Distance matrix (angstroms):
                    1          2          3          4          5
     1  C    0.000000
     2  H    1.097146   0.000000
     3  H    1.097145   1.900278   0.000000
     4  H    1.097146   1.900285   1.900282   0.000000
     5  Cl   2.159986   2.417118   2.417112   2.417110   0.000000
     6  Cl   2.147809   2.417322   2.417335   2.417338   4.307795
                    6
     6  Cl   0.000000
 Symmetry turned off by external request.
 Stoichiometry    CH3Cl2(1-)
 Framework group  C1[X(CH3Cl2)]
 Deg. of freedom    12
 Full point group                 C1      NOp   1
 Rotational constants (GHZ):    138.8660829      1.5489106      1.5489106
 Leave Link  202 at Wed Mar 15 20:07:22 2017, MaxMem=   134217728 cpu:         0.0
 (Enter /n/sw/g09_D.01/g09/l301.exe)
 Standard basis: VSTO-6G (5D, 7F)
 Ernie: Thresh=  0.10000D-02 Tol=  0.10000D-05 Strict=F.
  NNHCO=     0 NNPyr=     0 NCTC=     0               EPep=         0.000000000
    EC=        31.366190431  ECS=         0.473188359   EG=         0.093094302
   EHC=         0.000000000  EAt=       -33.052414446  AtH=         0.613817032
 EPDDG=         0.000000000  ECC=        31.932473092 EAtT=        33.666231478
    15 basis functions,    90 primitive gaussians,    15 cartesian basis functions
    11 alpha electrons       11 beta electrons
       nuclear repulsion energy        65.5987045707 Hartrees.
 IExCor=    0 DFT=F Ex=HF Corr=None ExCW=0 ScaHFX=  1.000000
 ScaDFX=  1.000000  1.000000  1.000000  1.000000 ScalE2=  1.000000  1.000000
 IRadAn=      0 IRanWt=     -1 IRanGd=            0 ICorTp=0 IEmpDi=  4
 Integral buffers will be    131072 words long.
 Regular integral format.
 Two-electron integral symmetry is turned off.
 Leave Link  301 at Wed Mar 15 20:07:22 2017, MaxMem=   134217728 cpu:         0.1
 (Enter /n/sw/g09_D.01/g09/l302.exe)
 Do NDO integrals.
 NPDir=0 NMtPBC=     1 NCelOv=     1 NCel=       1 NClECP=     1 NCelD=      1
         NCelK=      1 NCelE2=     1 NClLst=     1 CellRange=     0.0.
 One-electron integrals computed using PRISM.
 NBasis=    15 RedAO= F EigKep=  0.00D+00  NBF=    15
 NBsUse=    15 1.00D-04 EigRej=  0.00D+00 NBFU=    15
 Leave Link  302 at Wed Mar 15 20:07:22 2017, MaxMem=   134217728 cpu:         0.1
 (Enter /n/sw/g09_D.01/g09/l303.exe)
 DipDrv:  MaxL=1.
 Leave Link  303 at Wed Mar 15 20:07:23 2017, MaxMem=   134217728 cpu:         0.0
 (Enter /n/sw/g09_D.01/g09/l401.exe)
 Initial guess from the checkpoint file:  "/scratch/ekwan_MeCl_ts_IRC_forward/Gau-57276.chk"
 B after Tr=     0.000027    0.000001    0.000000
         Rot=    1.000000    0.000000    0.000000    0.000000 Ang=   0.00 deg.
 Guess basis will be translated and rotated to current coordinates.
 JPrj=0 DoOrth=T DoCkMO=T.
 Leave Link  401 at Wed Mar 15 20:07:23 2017, MaxMem=   134217728 cpu:         0.1
 (Enter /n/sw/g09_D.01/g09/l502.exe)
 Closed shell SCF:
 Using DIIS extrapolation, IDIIS=  1040.
 Overlap will be assumed to be unity.
 Two-electron integral symmetry not used.
 Keep J ints in memory in canonical form, NReq=884770.
 IVT=       79028 IEndB=       79028 NGot=   134217728 MDV=   134138140
 LenX=   134138140 LenY=   134137258
 Requested convergence on RMS density matrix=1.00D-08 within 128 cycles.
 Requested convergence on MAX density matrix=1.00D-06.
 Requested convergence on             energy=1.00D-06.
 No special actions if energy rises.
 FoFCou: FMM=F IPFlag=           0 FMFlag=           0 FMFlg1=           0
         NFxFlg=           0 DoJE=F BraDBF=F KetDBF=F FulRan=T
         wScrn=  0.000000 ICntrl=     600 IOpCl=  2 I1Cent=           0 NGrid=           0
         NMat0=    1 NMatS0=     33 NMatT0=    0 NMatD0=    1 NMtDS0=    0 NMtDT0=    0
 Symmetry not used in FoFCou.

 Cycle   1  Pass 1  IDiag  1:
 E=-0.894472926315188E-01
 DIIS: error= 6.51D-04 at cycle   1 NSaved=   1.
 NSaved= 1 IEnMin= 1 EnMin=-0.894472926315188E-01 IErMin= 1 ErrMin= 6.51D-04
 ErrMax= 6.51D-04  0.00D+00 EMaxC= 1.00D-01 BMatC= 4.96D-06 BMatP= 4.96D-06
 IDIUse=3 WtCom= 9.93D-01 WtEn= 6.51D-03
 Coeff-Com:  0.100D+01
 Coeff-En:   0.100D+01
 Coeff:      0.100D+01
 RMSDP=3.90D-04 MaxDP=1.80D-03              OVMax= 0.00D+00

 Cycle   2  Pass 1  IDiag  3:
 E=-0.894704042209753E-01 Delta-E=       -0.000023111589 Rises=F Damp=F
 DIIS: error= 1.95D-04 at cycle   2 NSaved=   2.
 NSaved= 2 IEnMin= 2 EnMin=-0.894704042209753E-01 IErMin= 2 ErrMin= 1.95D-04
 ErrMax= 1.95D-04  0.00D+00 EMaxC= 1.00D-01 BMatC= 6.92D-07 BMatP= 4.96D-06
 IDIUse=3 WtCom= 9.98D-01 WtEn= 1.95D-03
 Coeff-Com: -0.464D+00 0.146D+01
 Coeff-En:   0.000D+00 0.100D+01
 Coeff:     -0.463D+00 0.146D+01
 Gap=     0.370 Goal=   None    Shift=    0.000
 RMSDP=2.25D-04 MaxDP=9.95D-04 DE=-2.31D-05 OVMax= 1.82D-03

 Cycle   3  Pass 1  IDiag  3:
 E=-0.894747998241598E-01 Delta-E=       -0.000004395603 Rises=F Damp=F
 DIIS: error= 3.09D-05 at cycle   3 NSaved=   3.
 NSaved= 3 IEnMin= 3 EnMin=-0.894747998241598E-01 IErMin= 3 ErrMin= 3.09D-05
 ErrMax= 3.09D-05  0.00D+00 EMaxC= 1.00D-01 BMatC= 2.69D-08 BMatP= 6.92D-07
 IDIUse=1 WtCom= 1.00D+00 WtEn= 0.00D+00
 Coeff-Com:  0.168D+00-0.655D+00 0.149D+01
 Coeff:      0.168D+00-0.655D+00 0.149D+01
 Gap=     0.370 Goal=   None    Shift=    0.000
 RMSDP=4.87D-05 MaxDP=1.92D-04 DE=-4.40D-06 OVMax= 4.03D-04

 Cycle   4  Pass 1  IDiag  3:
 E=-0.894749611786381E-01 Delta-E=       -0.000000161354 Rises=F Damp=F
 DIIS: error= 8.61D-07 at cycle   4 NSaved=   4.
 NSaved= 4 IEnMin= 4 EnMin=-0.894749611786381E-01 IErMin= 4 ErrMin= 8.61D-07
 ErrMax= 8.61D-07  0.00D+00 EMaxC= 1.00D-01 BMatC= 4.28D-11 BMatP= 2.69D-08
 IDIUse=1 WtCom= 1.00D+00 WtEn= 0.00D+00
 Coeff-Com: -0.642D-01 0.251D+00-0.571D+00 0.138D+01
 Coeff:     -0.642D-01 0.251D+00-0.571D+00 0.138D+01
 Gap=     0.370 Goal=   None    Shift=    0.000
 RMSDP=1.52D-06 MaxDP=4.76D-06 DE=-1.61D-07 OVMax= 9.26D-06

 Cycle   5  Pass 1  IDiag  3:
 E=-0.894749614250827E-01 Delta-E=       -0.000000000246 Rises=F Damp=F
 DIIS: error= 2.37D-07 at cycle   5 NSaved=   5.
 NSaved= 5 IEnMin= 5 EnMin=-0.894749614250827E-01 IErMin= 5 ErrMin= 2.37D-07
 ErrMax= 2.37D-07  0.00D+00 EMaxC= 1.00D-01 BMatC= 2.74D-12 BMatP= 4.28D-11
 IDIUse=1 WtCom= 1.00D+00 WtEn= 0.00D+00
 Coeff-Com:  0.250D-01-0.977D-01 0.223D+00-0.654D+00 0.150D+01
 Coeff:      0.250D-01-0.977D-01 0.223D+00-0.654D+00 0.150D+01
 Gap=     0.370 Goal=   None    Shift=    0.000
 RMSDP=4.72D-07 MaxDP=1.46D-06 DE=-2.46D-10 OVMax= 3.15D-06

 Cycle   6  Pass 1  IDiag  3:
 E=-0.894749614434716E-01 Delta-E=       -0.000000000018 Rises=F Damp=F
 DIIS: error= 5.77D-08 at cycle   6 NSaved=   6.
 NSaved= 6 IEnMin= 6 EnMin=-0.894749614434716E-01 IErMin= 6 ErrMin= 5.77D-08
 ErrMax= 5.77D-08  0.00D+00 EMaxC= 1.00D-01 BMatC= 1.12D-13 BMatP= 2.74D-12
 IDIUse=1 WtCom= 1.00D+00 WtEn= 0.00D+00
 Coeff-Com: -0.110D-01 0.429D-01-0.979D-01 0.294D+00-0.770D+00 0.154D+01
 Coeff:     -0.110D-01 0.429D-01-0.979D-01 0.294D+00-0.770D+00 0.154D+01
 Gap=     0.370 Goal=   None    Shift=    0.000
 RMSDP=9.56D-08 MaxDP=3.96D-07 DE=-1.84D-11 OVMax= 5.59D-07

 Cycle   7  Pass 1  IDiag  3:
 E=-0.894749614442389E-01 Delta-E=       -0.000000000001 Rises=F Damp=F
 DIIS: error= 1.23D-08 at cycle   7 NSaved=   7.
 NSaved= 7 IEnMin= 7 EnMin=-0.894749614442389E-01 IErMin= 7 ErrMin= 1.23D-08
 ErrMax= 1.23D-08  0.00D+00 EMaxC= 1.00D-01 BMatC= 3.27D-15 BMatP= 1.12D-13
 IDIUse=1 WtCom= 1.00D+00 WtEn= 0.00D+00
 Coeff-Com:  0.333D-02-0.130D-01 0.297D-01-0.890D-01 0.238D+00-0.594D+00
 Coeff-Com:  0.142D+01
 Coeff:      0.333D-02-0.130D-01 0.297D-01-0.890D-01 0.238D+00-0.594D+00
 Coeff:      0.142D+01
 Gap=     0.370 Goal=   None    Shift=    0.000
 RMSDP=1.50D-08 MaxDP=7.79D-08 DE=-7.67D-13 OVMax= 7.52D-08

 Cycle   8  Pass 1  IDiag  3:
 E=-0.894749614442247E-01 Delta-E=        0.000000000000 Rises=F Damp=F
 DIIS: error= 1.54D-09 at cycle   8 NSaved=   8.
 NSaved= 8 IEnMin= 7 EnMin=-0.894749614442389E-01 IErMin= 8 ErrMin= 1.54D-09
 ErrMax= 1.54D-09  0.00D+00 EMaxC= 1.00D-01 BMatC= 5.81D-17 BMatP= 3.27D-15
 IDIUse=1 WtCom= 1.00D+00 WtEn= 0.00D+00
 Coeff-Com: -0.426D-03 0.167D-02-0.381D-02 0.110D-01-0.303D-01 0.988D-01
 Coeff-Com: -0.357D+00 0.128D+01
 Coeff:     -0.426D-03 0.167D-02-0.381D-02 0.110D-01-0.303D-01 0.988D-01
 Coeff:     -0.357D+00 0.128D+01
 Gap=     0.370 Goal=   None    Shift=    0.000
 RMSDP=1.62D-09 MaxDP=7.58D-09 DE= 1.42D-14 OVMax= 9.51D-09

 Cycle   9  Pass 2  IDiag  1:
 SCF Done:  E(RAM1) = -0.894749614442E-01 A.U. after    9 cycles
            NFock=  8  Conv=0.16D-08     -V/T= 0.9930
 KE=-1.277710150211D+01 PE=-1.084951381415D+02 EE= 5.558406011145D+01
 Leave Link  502 at Wed Mar 15 20:07:23 2017, MaxMem=   134217728 cpu:         0.1
 (Enter /n/sw/g09_D.01/g09/l801.exe)
 Range of M.O.s used for correlation:     1    15
 NBasis=    15 NAE=    11 NBE=    11 NFC=     0 NFV=     0
 NROrb=     15 NOA=    11 NOB=    11 NVA=     4 NVB=     4
 Leave Link  801 at Wed Mar 15 20:07:23 2017, MaxMem=   134217728 cpu:         0.0
 (Enter /n/sw/g09_D.01/g09/l1101.exe)
 Leave Link 1101 at Wed Mar 15 20:07:23 2017, MaxMem=   134217728 cpu:         0.0
 (Enter /n/sw/g09_D.01/g09/l1102.exe)
 Symmetrizing basis deriv contribution to polar:
 IMax=3 JMax=2 DiffMx= 0.00D+00
 Leave Link 1102 at Wed Mar 15 20:07:23 2017, MaxMem=   134217728 cpu:         0.1
 (Enter /n/sw/g09_D.01/g09/l1110.exe)
 Leave Link 1110 at Wed Mar 15 20:07:23 2017, MaxMem=   134217728 cpu:         0.0
 (Enter /n/sw/g09_D.01/g09/l1002.exe)
 Minotr:  Closed shell wavefunction.
 Leave Link 1002 at Wed Mar 15 20:07:23 2017, MaxMem=   134217728 cpu:         0.0
 (Enter /n/sw/g09_D.01/g09/l701.exe)
 Compute integral first derivatives.
 ... and contract with generalized density number  0.
 Leave Link  701 at Wed Mar 15 20:07:23 2017, MaxMem=   134217728 cpu:         0.1
 (Enter /n/sw/g09_D.01/g09/l702.exe)
 L702 exits ... SP integral derivatives will be done elsewhere.
 Leave Link  702 at Wed Mar 15 20:07:23 2017, MaxMem=   134217728 cpu:         0.1
 (Enter /n/sw/g09_D.01/g09/l703.exe)
 Compute integral first derivatives, UseDBF=F ICtDFT=           0.
 Integral derivatives from FoFJK, PRISM(SPDF).
 Calling FoFJK, ICntrl=      2147 FMM=F ISym2X=0 I1Cent= 0 IOpClX= 0 NMat=1 NMatS=1 NMatT=0.
 FoFJK:  IHMeth= 8 ICntrl=    2147 DoSepK=F KAlg= 0 I1Cent=   0 FoldK=F
 IRaf=         0 NMat=   1 IRICut=       1 DoRegI=T DoRafI=F ISym2E= 0.
 FoFCou: FMM=F IPFlag=           0 FMFlag=      100000 FMFlg1=         800
         NFxFlg=           0 DoJE=F BraDBF=F KetDBF=F FulRan=T
         wScrn=  0.000000 ICntrl=    2147 IOpCl=  0 I1Cent=           0 NGrid=           0
         NMat0=    1 NMatS0=      1 NMatT0=    0 NMatD0=    1 NMtDS0=    0 NMtDT0=    0
 Symmetry not used in FoFCou.
 Leave Link  703 at Wed Mar 15 20:07:23 2017, MaxMem=   134217728 cpu:         0.0
 (Enter /n/sw/g09_D.01/g09/l716.exe)
 Dipole        =-5.29566494D-02 3.81170875D-06 4.27763288D-06
 Polarizability= 0.00000000D+00 0.00000000D+00 0.00000000D+00
                 0.00000000D+00 0.00000000D+00 0.00000000D+00
 -------------------------------------------------------------------
 Center     Atomic                   Forces (Hartrees/Bohr)
 Number     Number              X              Y              Z
 -------------------------------------------------------------------
      1        6          -0.000965390   -0.000000652   -0.000000290
      2        1          -0.000031109   -0.000047956   -0.000051590
      3        1          -0.000031897   -0.000020137    0.000068098
      4        1          -0.000032112    0.000068537   -0.000016367
      5       17           0.000620756   -0.000000089   -0.000000060
      6       17           0.000439752    0.000000297    0.000000210
 -------------------------------------------------------------------
 Cartesian Forces:  Max     0.000965390 RMS     0.000291422
 Z-matrix is all fixed cartesians, so copy forces.
 Leave Link  716 at Wed Mar 15 20:07:23 2017, MaxMem=   134217728 cpu:         0.0
 (Enter /n/sw/g09_D.01/g09/l123.exe)
 IRC-IRC-IRC-IRC-IRC-IRC-IRC-IRC-IRC-IRC-IRC-IRC-IRC-IRC-IRC-IRC-IRC-IRC
 Pt  1 Step number   1 out of a maximum of  20
 Using modified Bulirsch-Stoer corrector integration.
   Using distance weighted interpolants to fit PES.
 PreDWI: IReCr0= 2 IReCr1= 1 IReCr2= 1 IReCr3= 1
 Modified Bulirsch-Stoer Extrapolation Cycles:
    EPS =    0.000010000000000
    Cycle     1 NS=    48
    Cycle     2 NS=    64 Truncation Error =  0.000290526
    Cycle     3 NS=    96 Truncation Error =  0.000003891
 BS completed in    3 cycles and     208 integration steps.
 Maximum DWI energy   std dev =  0.000000001 at pt    29
 Maximum DWI gradient std dev =  0.020625133 at pt     7
 SUMMARY OF CORRECTOR INTEGRATION:
   Predictor End Point Energy =    -0.089475
   Old End Point Energy       =    -0.089475
   Corrected End Point Energy =    -0.089475
   Predictor End-Start Dist.  =     0.035843
   Old End-Start Dist.        =     0.035843
   New End-Start Dist.        =     0.035626
   New End-Old End Dist.      =     0.002116
 CORRECTOR INTEGRATION CONVERGENCE:
   Recorrection delta-x convergence threshold:    0.010000
   Delta-x Convergence Met
 Point Number:   1          Path Number:   1
                    CURRENT STRUCTURE
                Cartesian Coordinates (Ang):                
 ---------------------------------------------------------------------
 Center     Atomic                     Coordinates (Angstroms)
 Number     Number                        X           Y           Z
 ---------------------------------------------------------------------
      1          6                   -0.005188    0.000003    0.000003
      2          1                    0.000549   -0.752349   -0.798662
      3          1                    0.000549   -0.315486    1.050892
      4          1                    0.000550    1.067843   -0.252220
      5         17                    2.154859   -0.000001   -0.000001
      6         17                   -2.153127    0.000000   -0.000001
 ---------------------------------------------------------------------
   CHANGE IN THE REACTION COORDINATE =    0.03563
   NET REACTION COORDINATE UP TO THIS POINT =    0.03563
  # OF POINTS ALONG THE PATH =   1
  # OF STEPS =   1

 Calculating another point on the path.
 Point Number  2 in FORWARD path direction.
 Using LQA Reaction Path Following.
   LQA: T_Est iteration completed in    3 iterations.
 IRC-IRC-IRC-IRC-IRC-IRC-IRC-IRC-IRC-IRC-IRC-IRC-IRC-IRC-IRC-IRC-IRC-IRC
 Leave Link  123 at Wed Mar 15 20:07:23 2017, MaxMem=   134217728 cpu:         0.0
 (Enter /n/sw/g09_D.01/g09/l202.exe)
                          Input orientation:                          
 ---------------------------------------------------------------------
 Center     Atomic      Atomic             Coordinates (Angstroms)
 Number     Number       Type             X           Y           Z
 ---------------------------------------------------------------------
      1          6           0       -0.010254    0.000002    0.000003
      2          1           0        0.001069   -0.752339   -0.798652
      3          1           0        0.001069   -0.315482    1.050876
      4          1           0        0.001069    1.067828   -0.252217
      5         17           0        2.155787   -0.000001   -0.000001
      6         17           0       -2.152360    0.000000    0.000000
 ---------------------------------------------------------------------
                    Distance matrix (angstroms):
                    1          2          3          4          5
     1  C    0.000000
     2  H    1.097267   0.000000
     3  H    1.097267   1.900421   0.000000
     4  H    1.097267   1.900421   1.900420   0.000000
     5  Cl   2.166041   2.417987   2.417990   2.417990   0.000000
     6  Cl   2.142106   2.416840   2.416843   2.416843   4.308146
                    6
     6  Cl   0.000000
 Symmetry turned off by external request.
 This structure is nearly, but not quite of a higher symmetry.
 Consider Symm=Loose if the higher symmetry is desired.
 Stoichiometry    CH3Cl2(1-)
 Framework group  C1[X(CH3Cl2)]
 Deg. of freedom    12
 Full point group                 C1      NOp   1
 Rotational constants (GHZ):    138.8457459      1.5486531      1.5486531
 Leave Link  202 at Wed Mar 15 20:07:23 2017, MaxMem=   134217728 cpu:         0.0
 (Enter /n/sw/g09_D.01/g09/l301.exe)
 Standard basis: VSTO-6G (5D, 7F)
 Ernie: Thresh=  0.10000D-02 Tol=  0.10000D-05 Strict=F.
  NNHCO=     0 NNPyr=     0 NCTC=     0               EPep=         0.000000000
    EC=        31.364268391  ECS=         0.473024735   EG=         0.093080696
   EHC=         0.000000000  EAt=       -33.052414446  AtH=         0.613817032
 EPDDG=         0.000000000  ECC=        31.930373823 EAtT=        33.666231478
    15 basis functions,    90 primitive gaussians,    15 cartesian basis functions
    11 alpha electrons       11 beta electrons
       nuclear repulsion energy        65.5966053011 Hartrees.
 IExCor=    0 DFT=F Ex=HF Corr=None ExCW=0 ScaHFX=  1.000000
 ScaDFX=  1.000000  1.000000  1.000000  1.000000 ScalE2=  1.000000  1.000000
 IRadAn=      0 IRanWt=     -1 IRanGd=            0 ICorTp=0 IEmpDi=  4
 Integral buffers will be    131072 words long.
 Regular integral format.
 Two-electron integral symmetry is turned off.
 Leave Link  301 at Wed Mar 15 20:07:24 2017, MaxMem=   134217728 cpu:         0.1
 (Enter /n/sw/g09_D.01/g09/l302.exe)
 Do NDO integrals.
 NPDir=0 NMtPBC=     1 NCelOv=     1 NCel=       1 NClECP=     1 NCelD=      1
         NCelK=      1 NCelE2=     1 NClLst=     1 CellRange=     0.0.
 One-electron integrals computed using PRISM.
 NBasis=    15 RedAO= F EigKep=  0.00D+00  NBF=    15
 NBsUse=    15 1.00D-04 EigRej=  0.00D+00 NBFU=    15
 Leave Link  302 at Wed Mar 15 20:07:24 2017, MaxMem=   134217728 cpu:         0.1
 (Enter /n/sw/g09_D.01/g09/l303.exe)
 DipDrv:  MaxL=1.
 Leave Link  303 at Wed Mar 15 20:07:24 2017, MaxMem=   134217728 cpu:         0.0
 (Enter /n/sw/g09_D.01/g09/l401.exe)
 Initial guess from the checkpoint file:  "/scratch/ekwan_MeCl_ts_IRC_forward/Gau-57276.chk"
 B after Tr=    -0.000030    0.000000    0.000000
         Rot=    1.000000    0.000000    0.000000    0.000000 Ang=   0.00 deg.
 Guess basis will be translated and rotated to current coordinates.
 JPrj=0 DoOrth=T DoCkMO=T.
 Leave Link  401 at Wed Mar 15 20:07:24 2017, MaxMem=   134217728 cpu:         0.1
 (Enter /n/sw/g09_D.01/g09/l502.exe)
 Closed shell SCF:
 Using DIIS extrapolation, IDIIS=  1040.
 Overlap will be assumed to be unity.
 Two-electron integral symmetry not used.
 Keep J ints in memory in canonical form, NReq=884770.
 IVT=       79028 IEndB=       79028 NGot=   134217728 MDV=   134138140
 LenX=   134138140 LenY=   134137258
 Requested convergence on RMS density matrix=1.00D-08 within 128 cycles.
 Requested convergence on MAX density matrix=1.00D-06.
 Requested convergence on             energy=1.00D-06.
 No special actions if energy rises.
 FoFCou: FMM=F IPFlag=           0 FMFlag=           0 FMFlg1=           0
         NFxFlg=           0 DoJE=F BraDBF=F KetDBF=F FulRan=T
         wScrn=  0.000000 ICntrl=     600 IOpCl=  2 I1Cent=           0 NGrid=           0
         NMat0=    1 NMatS0=     33 NMatT0=    0 NMatD0=    1 NMtDS0=    0 NMtDT0=    0
 Symmetry not used in FoFCou.

 Cycle   1  Pass 1  IDiag  1:
 E=-0.894655917094980E-01
 DIIS: error= 6.18D-04 at cycle   1 NSaved=   1.
 NSaved= 1 IEnMin= 1 EnMin=-0.894655917094980E-01 IErMin= 1 ErrMin= 6.18D-04
 ErrMax= 6.18D-04  0.00D+00 EMaxC= 1.00D-01 BMatC= 4.54D-06 BMatP= 4.54D-06
 IDIUse=3 WtCom= 9.94D-01 WtEn= 6.18D-03
 Coeff-Com:  0.100D+01
 Coeff-En:   0.100D+01
 Coeff:      0.100D+01
 RMSDP=3.77D-04 MaxDP=1.79D-03              OVMax= 0.00D+00

 Cycle   2  Pass 1  IDiag  3:
 E=-0.894868602880479E-01 Delta-E=       -0.000021268579 Rises=F Damp=F
 DIIS: error= 1.84D-04 at cycle   2 NSaved=   2.
 NSaved= 2 IEnMin= 2 EnMin=-0.894868602880479E-01 IErMin= 2 ErrMin= 1.84D-04
 ErrMax= 1.84D-04  0.00D+00 EMaxC= 1.00D-01 BMatC= 6.25D-07 BMatP= 4.54D-06
 IDIUse=3 WtCom= 9.98D-01 WtEn= 1.84D-03
 Coeff-Com: -0.454D+00 0.145D+01
 Coeff-En:   0.000D+00 0.100D+01
 Coeff:     -0.453D+00 0.145D+01
 Gap=     0.370 Goal=   None    Shift=    0.000
 RMSDP=2.14D-04 MaxDP=9.70D-04 DE=-2.13D-05 OVMax= 1.75D-03

 Cycle   3  Pass 1  IDiag  3:
 E=-0.894908435703314E-01 Delta-E=       -0.000003983282 Rises=F Damp=F
 DIIS: error= 2.97D-05 at cycle   3 NSaved=   3.
 NSaved= 3 IEnMin= 3 EnMin=-0.894908435703314E-01 IErMin= 3 ErrMin= 2.97D-05
 ErrMax= 2.97D-05  0.00D+00 EMaxC= 1.00D-01 BMatC= 2.56D-08 BMatP= 6.25D-07
 IDIUse=1 WtCom= 1.00D+00 WtEn= 0.00D+00
 Coeff-Com:  0.167D+00-0.665D+00 0.150D+01
 Coeff:      0.167D+00-0.665D+00 0.150D+01
 Gap=     0.370 Goal=   None    Shift=    0.000
 RMSDP=4.77D-05 MaxDP=1.85D-04 DE=-3.98D-06 OVMax= 3.94D-04

 Cycle   4  Pass 1  IDiag  3:
 E=-0.894909978100316E-01 Delta-E=       -0.000000154240 Rises=F Damp=F
 DIIS: error= 1.41D-06 at cycle   4 NSaved=   4.
 NSaved= 4 IEnMin= 4 EnMin=-0.894909978100316E-01 IErMin= 4 ErrMin= 1.41D-06
 ErrMax= 1.41D-06  0.00D+00 EMaxC= 1.00D-01 BMatC= 4.63D-11 BMatP= 2.56D-08
 IDIUse=1 WtCom= 1.00D+00 WtEn= 0.00D+00
 Coeff-Com: -0.787D-01 0.313D+00-0.706D+00 0.147D+01
 Coeff:     -0.787D-01 0.313D+00-0.706D+00 0.147D+01
 Gap=     0.370 Goal=   None    Shift=    0.000
 RMSDP=1.41D-06 MaxDP=7.27D-06 DE=-1.54D-07 OVMax= 6.25D-06

 Cycle   5  Pass 1  IDiag  3:
 E=-0.894909980440985E-01 Delta-E=       -0.000000000234 Rises=F Damp=F
 DIIS: error= 3.79D-07 at cycle   5 NSaved=   5.
 NSaved= 5 IEnMin= 5 EnMin=-0.894909980440985E-01 IErMin= 5 ErrMin= 3.79D-07
 ErrMax= 3.79D-07  0.00D+00 EMaxC= 1.00D-01 BMatC= 3.03D-12 BMatP= 4.63D-11
 IDIUse=1 WtCom= 1.00D+00 WtEn= 0.00D+00
 Coeff-Com:  0.285D-01-0.113D+00 0.256D+00-0.674D+00 0.150D+01
 Coeff:      0.285D-01-0.113D+00 0.256D+00-0.674D+00 0.150D+01
 Gap=     0.370 Goal=   None    Shift=    0.000
 RMSDP=4.16D-07 MaxDP=2.42D-06 DE=-2.34D-10 OVMax= 1.78D-06

 Cycle   6  Pass 1  IDiag  3:
 E=-0.894909980603700E-01 Delta-E=       -0.000000000016 Rises=F Damp=F
 DIIS: error= 5.71D-08 at cycle   6 NSaved=   6.
 NSaved= 6 IEnMin= 6 EnMin=-0.894909980603700E-01 IErMin= 6 ErrMin= 5.71D-08
 ErrMax= 5.71D-08  0.00D+00 EMaxC= 1.00D-01 BMatC= 8.43D-14 BMatP= 3.03D-12
 IDIUse=1 WtCom= 1.00D+00 WtEn= 0.00D+00
 Coeff-Com: -0.152D-01 0.603D-01-0.136D+00 0.372D+00-0.904D+00 0.162D+01
 Coeff:     -0.152D-01 0.603D-01-0.136D+00 0.372D+00-0.904D+00 0.162D+01
 Gap=     0.370 Goal=   None    Shift=    0.000
 RMSDP=7.86D-08 MaxDP=2.99D-07 DE=-1.63D-11 OVMax= 3.11D-07

 Cycle   7  Pass 1  IDiag  3:
 E=-0.894909980608816E-01 Delta-E=       -0.000000000001 Rises=F Damp=F
 DIIS: error= 7.97D-09 at cycle   7 NSaved=   7.
 NSaved= 7 IEnMin= 7 EnMin=-0.894909980608816E-01 IErMin= 7 ErrMin= 7.97D-09
 ErrMax= 7.97D-09  0.00D+00 EMaxC= 1.00D-01 BMatC= 9.70D-16 BMatP= 8.43D-14
 IDIUse=1 WtCom= 1.00D+00 WtEn= 0.00D+00
 Coeff-Com:  0.218D-02-0.865D-02 0.196D-01-0.544D-01 0.134D+00-0.298D+00
 Coeff-Com:  0.121D+01
 Coeff:      0.218D-02-0.865D-02 0.196D-01-0.544D-01 0.134D+00-0.298D+00
 Coeff:      0.121D+01
 Gap=     0.370 Goal=   None    Shift=    0.000
 RMSDP=8.20D-09 MaxDP=3.51D-08 DE=-5.12D-13 OVMax= 3.84D-08

 Cycle   8  Pass 2  IDiag  1:
 SCF Done:  E(RAM1) = -0.894909980609E-01 A.U. after    8 cycles
            NFock=  7  Conv=0.82D-08     -V/T= 0.9930
 KE=-1.277692786461D+01 PE=-1.084912755348D+02 EE= 5.558210710025D+01
 Leave Link  502 at Wed Mar 15 20:07:24 2017, MaxMem=   134217728 cpu:         0.1
 (Enter /n/sw/g09_D.01/g09/l801.exe)
 Range of M.O.s used for correlation:     1    15
 NBasis=    15 NAE=    11 NBE=    11 NFC=     0 NFV=     0
 NROrb=     15 NOA=    11 NOB=    11 NVA=     4 NVB=     4
 Leave Link  801 at Wed Mar 15 20:07:24 2017, MaxMem=   134217728 cpu:         0.0
 (Enter /n/sw/g09_D.01/g09/l1101.exe)
 Leave Link 1101 at Wed Mar 15 20:07:24 2017, MaxMem=   134217728 cpu:         0.0
 (Enter /n/sw/g09_D.01/g09/l1102.exe)
 Symmetrizing basis deriv contribution to polar:
 IMax=3 JMax=2 DiffMx= 0.00D+00
 Leave Link 1102 at Wed Mar 15 20:07:24 2017, MaxMem=   134217728 cpu:         0.1
 (Enter /n/sw/g09_D.01/g09/l1110.exe)
 Leave Link 1110 at Wed Mar 15 20:07:24 2017, MaxMem=   134217728 cpu:         0.0
 (Enter /n/sw/g09_D.01/g09/l1002.exe)
 Minotr:  Closed shell wavefunction.
 Leave Link 1002 at Wed Mar 15 20:07:24 2017, MaxMem=   134217728 cpu:         0.0
 (Enter /n/sw/g09_D.01/g09/l701.exe)
 Compute integral first derivatives.
 ... and contract with generalized density number  0.
 Leave Link  701 at Wed Mar 15 20:07:24 2017, MaxMem=   134217728 cpu:         0.1
 (Enter /n/sw/g09_D.01/g09/l702.exe)
 L702 exits ... SP integral derivatives will be done elsewhere.
 Leave Link  702 at Wed Mar 15 20:07:24 2017, MaxMem=   134217728 cpu:         0.0
 (Enter /n/sw/g09_D.01/g09/l703.exe)
 Compute integral first derivatives, UseDBF=F ICtDFT=           0.
 Integral derivatives from FoFJK, PRISM(SPDF).
 Calling FoFJK, ICntrl=      2147 FMM=F ISym2X=0 I1Cent= 0 IOpClX= 0 NMat=1 NMatS=1 NMatT=0.
 FoFJK:  IHMeth= 8 ICntrl=    2147 DoSepK=F KAlg= 0 I1Cent=   0 FoldK=F
 IRaf=         0 NMat=   1 IRICut=       1 DoRegI=T DoRafI=F ISym2E= 0.
 FoFCou: FMM=F IPFlag=           0 FMFlag=      100000 FMFlg1=         800
         NFxFlg=           0 DoJE=F BraDBF=F KetDBF=F FulRan=T
         wScrn=  0.000000 ICntrl=    2147 IOpCl=  0 I1Cent=           0 NGrid=           0
         NMat0=    1 NMatS0=      1 NMatT0=    0 NMatD0=    1 NMtDS0=    0 NMtDT0=    0
 Symmetry not used in FoFCou.
 Leave Link  703 at Wed Mar 15 20:07:25 2017, MaxMem=   134217728 cpu:         0.0
 (Enter /n/sw/g09_D.01/g09/l716.exe)
 Dipole        =-1.02871552D-01 2.74433472D-06 3.21844773D-06
 Polarizability= 0.00000000D+00 0.00000000D+00 0.00000000D+00
                 0.00000000D+00 0.00000000D+00 0.00000000D+00
 -------------------------------------------------------------------
 Center     Atomic                   Forces (Hartrees/Bohr)
 Number     Number              X              Y              Z
 -------------------------------------------------------------------
      1        6          -0.001903241   -0.000000150   -0.000000147
      2        1           0.000015744    0.000009601    0.000010190
      3        1           0.000015742    0.000004005   -0.000013369
      4        1           0.000015743   -0.000013568    0.000003196
      5       17           0.000987798    0.000000054    0.000000063
      6       17           0.000868215    0.000000057    0.000000067
 -------------------------------------------------------------------
 Cartesian Forces:  Max     0.001903241 RMS     0.000545344
 Z-matrix is all fixed cartesians, so copy forces.
 Leave Link  716 at Wed Mar 15 20:07:25 2017, MaxMem=   134217728 cpu:         0.0
 (Enter /n/sw/g09_D.01/g09/l123.exe)
 IRC-IRC-IRC-IRC-IRC-IRC-IRC-IRC-IRC-IRC-IRC-IRC-IRC-IRC-IRC-IRC-IRC-IRC
 Pt  2 Step number   1 out of a maximum of  20
 Using modified Bulirsch-Stoer corrector integration.
   Using distance weighted interpolants to fit PES.
 PreDWI: IReCr0= 2 IReCr1= 1 IReCr2= 1 IReCr3= 1
 Modified Bulirsch-Stoer Extrapolation Cycles:
    EPS =    0.000010000000000
    Cycle     1 NS=    48
    Cycle     2 NS=    64 Truncation Error =  0.000005717
 BS completed in    2 cycles and     112 integration steps.
 Maximum DWI energy   std dev =  0.000000002 at pt    46
 Maximum DWI gradient std dev =  0.013667691 at pt    37
 SUMMARY OF CORRECTOR INTEGRATION:
   Predictor End Point Energy =    -0.089491
   Old End Point Energy       =    -0.089491
   Corrected End Point Energy =    -0.089491
   Predictor End-Start Dist.  =     0.035829
   Old End-Start Dist.        =     0.035829
   New End-Start Dist.        =     0.035828
   New End-Old End Dist.      =     0.000064
 CORRECTOR INTEGRATION CONVERGENCE:
   Recorrection delta-x convergence threshold:    0.010000
   Delta-x Convergence Met
 Point Number:   2          Path Number:   1
                    CURRENT STRUCTURE
                Cartesian Coordinates (Ang):                
 ---------------------------------------------------------------------
 Center     Atomic                     Coordinates (Angstroms)
 Number     Number                        X           Y           Z
 ---------------------------------------------------------------------
      1          6                   -0.010254    0.000002    0.000003
      2          1                    0.001063   -0.752327   -0.798639
      3          1                    0.001063   -0.315477    1.050859
      4          1                    0.001063    1.067811   -0.252213
      5         17                    2.155788   -0.000001   -0.000001
      6         17                   -2.152361    0.000000    0.000000
 ---------------------------------------------------------------------
   CHANGE IN THE REACTION COORDINATE =    0.03583
   NET REACTION COORDINATE UP TO THIS POINT =    0.07145
  # OF POINTS ALONG THE PATH =   2
  # OF STEPS =   1

 Calculating another point on the path.
 Point Number  3 in FORWARD path direction.
 Using LQA Reaction Path Following.
   LQA: T_Est iteration completed in    3 iterations.
 IRC-IRC-IRC-IRC-IRC-IRC-IRC-IRC-IRC-IRC-IRC-IRC-IRC-IRC-IRC-IRC-IRC-IRC
 Leave Link  123 at Wed Mar 15 20:07:25 2017, MaxMem=   134217728 cpu:         0.0
 (Enter /n/sw/g09_D.01/g09/l202.exe)
                          Input orientation:                          
 ---------------------------------------------------------------------
 Center     Atomic      Atomic             Coordinates (Angstroms)
 Number     Number       Type             X           Y           Z
 ---------------------------------------------------------------------
      1          6           0       -0.015323    0.000002    0.000002
      2          1           0        0.001583   -0.752305   -0.798615
      3          1           0        0.001583   -0.315468    1.050828
      4          1           0        0.001583    1.067779   -0.252205
      5         17           0        2.156678   -0.000001   -0.000001
      6         17           0       -2.151557    0.000000    0.000000
 ---------------------------------------------------------------------
                    Distance matrix (angstroms):
                    1          2          3          4          5
     1  C    0.000000
     2  H    1.097288   0.000000
     3  H    1.097288   1.900334   0.000000
     4  H    1.097288   1.900334   1.900333   0.000000
     5  Cl   2.172002   2.418302   2.418304   2.418304   0.000000
     6  Cl   2.136233   2.416559   2.416562   2.416562   4.308235
                    6
     6  Cl   0.000000
 Symmetry turned off by external request.
 This structure is nearly, but not quite of a higher symmetry.
 Consider Symm=Loose if the higher symmetry is desired.
 Stoichiometry    CH3Cl2(1-)
 Framework group  C1[X(CH3Cl2)]
 Deg. of freedom    12
 Full point group                 C1      NOp   1
 Rotational constants (GHZ):    138.8584619      1.5485821      1.5485821
 Leave Link  202 at Wed Mar 15 20:07:25 2017, MaxMem=   134217728 cpu:         0.0
 (Enter /n/sw/g09_D.01/g09/l301.exe)
 Standard basis: VSTO-6G (5D, 7F)
 Ernie: Thresh=  0.10000D-02 Tol=  0.10000D-05 Strict=F.
  NNHCO=     0 NNPyr=     0 NCTC=     0               EPep=         0.000000000
    EC=        31.364154100  ECS=         0.473045788   EG=         0.093102154
   EHC=         0.000000000  EAt=       -33.052414446  AtH=         0.613817032
 EPDDG=         0.000000000  ECC=        31.930302042 EAtT=        33.666231478
    15 basis functions,    90 primitive gaussians,    15 cartesian basis functions
    11 alpha electrons       11 beta electrons
       nuclear repulsion energy        65.5965335201 Hartrees.
 IExCor=    0 DFT=F Ex=HF Corr=None ExCW=0 ScaHFX=  1.000000
 ScaDFX=  1.000000  1.000000  1.000000  1.000000 ScalE2=  1.000000  1.000000
 IRadAn=      0 IRanWt=     -1 IRanGd=            0 ICorTp=0 IEmpDi=  4
 Integral buffers will be    131072 words long.
 Regular integral format.
 Two-electron integral symmetry is turned off.
 Leave Link  301 at Wed Mar 15 20:07:25 2017, MaxMem=   134217728 cpu:         0.1
 (Enter /n/sw/g09_D.01/g09/l302.exe)
 Do NDO integrals.
 NPDir=0 NMtPBC=     1 NCelOv=     1 NCel=       1 NClECP=     1 NCelD=      1
         NCelK=      1 NCelE2=     1 NClLst=     1 CellRange=     0.0.
 One-electron integrals computed using PRISM.
 NBasis=    15 RedAO= F EigKep=  0.00D+00  NBF=    15
 NBsUse=    15 1.00D-04 EigRej=  0.00D+00 NBFU=    15
 Leave Link  302 at Wed Mar 15 20:07:25 2017, MaxMem=   134217728 cpu:         0.1
 (Enter /n/sw/g09_D.01/g09/l303.exe)
 DipDrv:  MaxL=1.
 Leave Link  303 at Wed Mar 15 20:07:25 2017, MaxMem=   134217728 cpu:         0.0
 (Enter /n/sw/g09_D.01/g09/l401.exe)
 Initial guess from the checkpoint file:  "/scratch/ekwan_MeCl_ts_IRC_forward/Gau-57276.chk"
 B after Tr=    -0.000003    0.000000    0.000000
         Rot=    1.000000    0.000000    0.000000    0.000000 Ang=   0.00 deg.
 Guess basis will be translated and rotated to current coordinates.
 JPrj=0 DoOrth=T DoCkMO=T.
 Leave Link  401 at Wed Mar 15 20:07:25 2017, MaxMem=   134217728 cpu:         0.1
 (Enter /n/sw/g09_D.01/g09/l502.exe)
 Closed shell SCF:
 Using DIIS extrapolation, IDIIS=  1040.
 Overlap will be assumed to be unity.
 Two-electron integral symmetry not used.
 Keep J ints in memory in canonical form, NReq=884770.
 IVT=       79028 IEndB=       79028 NGot=   134217728 MDV=   134138140
 LenX=   134138140 LenY=   134137258
 Requested convergence on RMS density matrix=1.00D-08 within 128 cycles.
 Requested convergence on MAX density matrix=1.00D-06.
 Requested convergence on             energy=1.00D-06.
 No special actions if energy rises.
 FoFCou: FMM=F IPFlag=           0 FMFlag=           0 FMFlg1=           0
         NFxFlg=           0 DoJE=F BraDBF=F KetDBF=F FulRan=T
         wScrn=  0.000000 ICntrl=     600 IOpCl=  2 I1Cent=           0 NGrid=           0
         NMat0=    1 NMatS0=     33 NMatT0=    0 NMatD0=    1 NMtDS0=    0 NMtDT0=    0
 Symmetry not used in FoFCou.

 Cycle   1  Pass 1  IDiag  1:
 E=-0.894899480476425E-01
 DIIS: error= 6.49D-04 at cycle   1 NSaved=   1.
 NSaved= 1 IEnMin= 1 EnMin=-0.894899480476425E-01 IErMin= 1 ErrMin= 6.49D-04
 ErrMax= 6.49D-04  0.00D+00 EMaxC= 1.00D-01 BMatC= 4.94D-06 BMatP= 4.94D-06
 IDIUse=3 WtCom= 9.94D-01 WtEn= 6.49D-03
 Coeff-Com:  0.100D+01
 Coeff-En:   0.100D+01
 Coeff:      0.100D+01
 RMSDP=3.90D-04 MaxDP=1.83D-03              OVMax= 0.00D+00

 Cycle   2  Pass 1  IDiag  3:
 E=-0.895129605405316E-01 Delta-E=       -0.000023012493 Rises=F Damp=F
 DIIS: error= 1.94D-04 at cycle   2 NSaved=   2.
 NSaved= 2 IEnMin= 2 EnMin=-0.895129605405316E-01 IErMin= 2 ErrMin= 1.94D-04
 ErrMax= 1.94D-04  0.00D+00 EMaxC= 1.00D-01 BMatC= 6.89D-07 BMatP= 4.94D-06
 IDIUse=3 WtCom= 9.98D-01 WtEn= 1.94D-03
 Coeff-Com: -0.463D+00 0.146D+01
 Coeff-En:   0.000D+00 0.100D+01
 Coeff:     -0.462D+00 0.146D+01
 Gap=     0.370 Goal=   None    Shift=    0.000
 RMSDP=2.24D-04 MaxDP=1.01D-03 DE=-2.30D-05 OVMax= 1.81D-03

 Cycle   3  Pass 1  IDiag  3:
 E=-0.895173346581544E-01 Delta-E=       -0.000004374118 Rises=F Damp=F
 DIIS: error= 3.02D-05 at cycle   3 NSaved=   3.
 NSaved= 3 IEnMin= 3 EnMin=-0.895173346581544E-01 IErMin= 3 ErrMin= 3.02D-05
 ErrMax= 3.02D-05  0.00D+00 EMaxC= 1.00D-01 BMatC= 2.67D-08 BMatP= 6.89D-07
 IDIUse=1 WtCom= 1.00D+00 WtEn= 0.00D+00
 Coeff-Com:  0.168D+00-0.656D+00 0.149D+01
 Coeff:      0.168D+00-0.656D+00 0.149D+01
 Gap=     0.370 Goal=   None    Shift=    0.000
 RMSDP=4.86D-05 MaxDP=1.88D-04 DE=-4.37D-06 OVMax= 4.02D-04

 Cycle   4  Pass 1  IDiag  3:
 E=-0.895174952372315E-01 Delta-E=       -0.000000160579 Rises=F Damp=F
 DIIS: error= 1.03D-06 at cycle   4 NSaved=   4.
 NSaved= 4 IEnMin= 4 EnMin=-0.895174952372315E-01 IErMin= 4 ErrMin= 1.03D-06
 ErrMax= 1.03D-06  0.00D+00 EMaxC= 1.00D-01 BMatC= 3.20D-11 BMatP= 2.67D-08
 IDIUse=1 WtCom= 1.00D+00 WtEn= 0.00D+00
 Coeff-Com: -0.680D-01 0.266D+00-0.605D+00 0.141D+01
 Coeff:     -0.680D-01 0.266D+00-0.605D+00 0.141D+01
 Gap=     0.370 Goal=   None    Shift=    0.000
 RMSDP=1.10D-06 MaxDP=4.04D-06 DE=-1.61D-07 OVMax= 5.81D-06

 Cycle   5  Pass 1  IDiag  3:
 E=-0.895174953820685E-01 Delta-E=       -0.000000000145 Rises=F Damp=F
 DIIS: error= 2.06D-07 at cycle   5 NSaved=   5.
 NSaved= 5 IEnMin= 5 EnMin=-0.895174953820685E-01 IErMin= 5 ErrMin= 2.06D-07
 ErrMax= 2.06D-07  0.00D+00 EMaxC= 1.00D-01 BMatC= 1.87D-12 BMatP= 3.20D-11
 IDIUse=1 WtCom= 1.00D+00 WtEn= 0.00D+00
 Coeff-Com:  0.239D-01-0.932D-01 0.212D+00-0.594D+00 0.145D+01
 Coeff:      0.239D-01-0.932D-01 0.212D+00-0.594D+00 0.145D+01
 Gap=     0.370 Goal=   None    Shift=    0.000
 RMSDP=3.44D-07 MaxDP=1.11D-06 DE=-1.45D-10 OVMax= 2.32D-06

 Cycle   6  Pass 1  IDiag  3:
 E=-0.895174953929825E-01 Delta-E=       -0.000000000011 Rises=F Damp=F
 DIIS: error= 4.10D-08 at cycle   6 NSaved=   6.
 NSaved= 6 IEnMin= 6 EnMin=-0.895174953929825E-01 IErMin= 6 ErrMin= 4.10D-08
 ErrMax= 4.10D-08  0.00D+00 EMaxC= 1.00D-01 BMatC= 6.04D-14 BMatP= 1.87D-12
 IDIUse=1 WtCom= 1.00D+00 WtEn= 0.00D+00
 Coeff-Com: -0.985D-02 0.385D-01-0.878D-01 0.249D+00-0.706D+00 0.152D+01
 Coeff:     -0.985D-02 0.385D-01-0.878D-01 0.249D+00-0.706D+00 0.152D+01
 Gap=     0.370 Goal=   None    Shift=    0.000
 RMSDP=7.39D-08 MaxDP=2.52D-07 DE=-1.09D-11 OVMax= 5.85D-07

 Cycle   7  Pass 1  IDiag  3:
 E=-0.895174953934514E-01 Delta-E=        0.000000000000 Rises=F Damp=F
 DIIS: error= 7.90D-09 at cycle   7 NSaved=   7.
 NSaved= 7 IEnMin= 7 EnMin=-0.895174953934514E-01 IErMin= 7 ErrMin= 7.90D-09
 ErrMax= 7.90D-09  0.00D+00 EMaxC= 1.00D-01 BMatC= 1.57D-15 BMatP= 6.04D-14
 IDIUse=1 WtCom= 1.00D+00 WtEn= 0.00D+00
 Coeff-Com:  0.285D-02-0.112D-01 0.254D-01-0.732D-01 0.220D+00-0.582D+00
 Coeff-Com:  0.142D+01
 Coeff:      0.285D-02-0.112D-01 0.254D-01-0.732D-01 0.220D+00-0.582D+00
 Coeff:      0.142D+01
 Gap=     0.370 Goal=   None    Shift=    0.000
 RMSDP=1.07D-08 MaxDP=4.93D-08 DE=-4.69D-13 OVMax= 6.61D-08

 Cycle   8  Pass 1  IDiag  3:
 E=-0.895174953933804E-01 Delta-E=        0.000000000000 Rises=F Damp=F
 DIIS: error= 1.05D-09 at cycle   8 NSaved=   8.
 NSaved= 8 IEnMin= 7 EnMin=-0.895174953934514E-01 IErMin= 8 ErrMin= 1.05D-09
 ErrMax= 1.05D-09  0.00D+00 EMaxC= 1.00D-01 BMatC= 4.60D-17 BMatP= 1.57D-15
 IDIUse=1 WtCom= 1.00D+00 WtEn= 0.00D+00
 Coeff-Com: -0.208D-03 0.813D-03-0.186D-02 0.532D-02-0.194D-01 0.807D-01
 Coeff-Com: -0.371D+00 0.131D+01
 Coeff:     -0.208D-03 0.813D-03-0.186D-02 0.532D-02-0.194D-01 0.807D-01
 Coeff:     -0.371D+00 0.131D+01
 Gap=     0.370 Goal=   None    Shift=    0.000
 RMSDP=1.69D-09 MaxDP=6.84D-09 DE= 7.11D-14 OVMax= 8.41D-09

 Cycle   9  Pass 2  IDiag  1:
 SCF Done:  E(RAM1) = -0.895174953934E-01 A.U. after    9 cycles
            NFock=  8  Conv=0.17D-08     -V/T= 0.9930
 KE=-1.277699269705D+01 PE=-1.084909468232D+02 EE= 5.558188850478D+01
 Leave Link  502 at Wed Mar 15 20:07:25 2017, MaxMem=   134217728 cpu:         0.1
 (Enter /n/sw/g09_D.01/g09/l801.exe)
 Range of M.O.s used for correlation:     1    15
 NBasis=    15 NAE=    11 NBE=    11 NFC=     0 NFV=     0
 NROrb=     15 NOA=    11 NOB=    11 NVA=     4 NVB=     4
 Leave Link  801 at Wed Mar 15 20:07:25 2017, MaxMem=   134217728 cpu:         0.1
 (Enter /n/sw/g09_D.01/g09/l1101.exe)
 Leave Link 1101 at Wed Mar 15 20:07:25 2017, MaxMem=   134217728 cpu:         0.1
 (Enter /n/sw/g09_D.01/g09/l1102.exe)
 Symmetrizing basis deriv contribution to polar:
 IMax=3 JMax=2 DiffMx= 0.00D+00
 Leave Link 1102 at Wed Mar 15 20:07:25 2017, MaxMem=   134217728 cpu:         0.1
 (Enter /n/sw/g09_D.01/g09/l1110.exe)
 Leave Link 1110 at Wed Mar 15 20:07:25 2017, MaxMem=   134217728 cpu:         0.1
 (Enter /n/sw/g09_D.01/g09/l1002.exe)
 Minotr:  Closed shell wavefunction.
 Leave Link 1002 at Wed Mar 15 20:07:26 2017, MaxMem=   134217728 cpu:         0.1
 (Enter /n/sw/g09_D.01/g09/l701.exe)
 Compute integral first derivatives.
 ... and contract with generalized density number  0.
 Leave Link  701 at Wed Mar 15 20:07:26 2017, MaxMem=   134217728 cpu:         0.1
 (Enter /n/sw/g09_D.01/g09/l702.exe)
 L702 exits ... SP integral derivatives will be done elsewhere.
 Leave Link  702 at Wed Mar 15 20:07:26 2017, MaxMem=   134217728 cpu:         0.1
 (Enter /n/sw/g09_D.01/g09/l703.exe)
 Compute integral first derivatives, UseDBF=F ICtDFT=           0.
 Integral derivatives from FoFJK, PRISM(SPDF).
 Calling FoFJK, ICntrl=      2147 FMM=F ISym2X=0 I1Cent= 0 IOpClX= 0 NMat=1 NMatS=1 NMatT=0.
 FoFJK:  IHMeth= 8 ICntrl=    2147 DoSepK=F KAlg= 0 I1Cent=   0 FoldK=F
 IRaf=         0 NMat=   1 IRICut=       1 DoRegI=T DoRafI=F ISym2E= 0.
 FoFCou: FMM=F IPFlag=           0 FMFlag=      100000 FMFlg1=         800
         NFxFlg=           0 DoJE=F BraDBF=F KetDBF=F FulRan=T
         wScrn=  0.000000 ICntrl=    2147 IOpCl=  0 I1Cent=           0 NGrid=           0
         NMat0=    1 NMatS0=      1 NMatT0=    0 NMatD0=    1 NMtDS0=    0 NMtDT0=    0
 Symmetry not used in FoFCou.
 Leave Link  703 at Wed Mar 15 20:07:26 2017, MaxMem=   134217728 cpu:         0.0
 (Enter /n/sw/g09_D.01/g09/l716.exe)
 Dipole        =-1.53663795D-01 2.54488494D-06 2.97046808D-06
 Polarizability= 0.00000000D+00 0.00000000D+00 0.00000000D+00
                 0.00000000D+00 0.00000000D+00 0.00000000D+00
 -------------------------------------------------------------------
 Center     Atomic                   Forces (Hartrees/Bohr)
 Number     Number              X              Y              Z
 -------------------------------------------------------------------
      1        6          -0.002840065   -0.000000053   -0.000000075
      2        1           0.000024316    0.000012539    0.000013310
      3        1           0.000024311    0.000005261   -0.000017560
      4        1           0.000024309   -0.000017849    0.000004205
      5       17           0.001441239    0.000000048    0.000000057
      6       17           0.001325890    0.000000054    0.000000063
 -------------------------------------------------------------------
 Cartesian Forces:  Max     0.002840065 RMS     0.000813221
 Z-matrix is all fixed cartesians, so copy forces.
 Leave Link  716 at Wed Mar 15 20:07:26 2017, MaxMem=   134217728 cpu:         0.0
 (Enter /n/sw/g09_D.01/g09/l123.exe)
 IRC-IRC-IRC-IRC-IRC-IRC-IRC-IRC-IRC-IRC-IRC-IRC-IRC-IRC-IRC-IRC-IRC-IRC
 Pt  3 Step number   1 out of a maximum of  20
 Using modified Bulirsch-Stoer corrector integration.
   Using distance weighted interpolants to fit PES.
 PreDWI: IReCr0= 2 IReCr1= 1 IReCr2= 1 IReCr3= 1
 Modified Bulirsch-Stoer Extrapolation Cycles:
    EPS =    0.000010000000000
    Cycle     1 NS=    48
    Cycle     2 NS=    64 Truncation Error =  0.000001588
 BS completed in    2 cycles and     112 integration steps.
 Maximum DWI energy   std dev =  0.000000001 at pt    50
 Maximum DWI gradient std dev =  0.010466715 at pt    28
 SUMMARY OF CORRECTOR INTEGRATION:
   Predictor End Point Energy =    -0.089517
   Old End Point Energy       =    -0.089517
   Corrected End Point Energy =    -0.089517
   Predictor End-Start Dist.  =     0.035833
   Old End-Start Dist.        =     0.035833
   New End-Start Dist.        =     0.035833
   New End-Old End Dist.      =     0.000071
 CORRECTOR INTEGRATION CONVERGENCE:
   Recorrection delta-x convergence threshold:    0.010000
   Delta-x Convergence Met
 Point Number:   3          Path Number:   1
                    CURRENT STRUCTURE
                Cartesian Coordinates (Ang):                
 ---------------------------------------------------------------------
 Center     Atomic                     Coordinates (Angstroms)
 Number     Number                        X           Y           Z
 ---------------------------------------------------------------------
      1          6                   -0.015323    0.000002    0.000002
      2          1                    0.001582   -0.752290   -0.798600
      3          1                    0.001582   -0.315461    1.050808
      4          1                    0.001582    1.067758   -0.252200
      5         17                    2.156679   -0.000001   -0.000001
      6         17                   -2.151557    0.000000    0.000000
 ---------------------------------------------------------------------
   CHANGE IN THE REACTION COORDINATE =    0.03583
   NET REACTION COORDINATE UP TO THIS POINT =    0.10729
  # OF POINTS ALONG THE PATH =   3
  # OF STEPS =   1

 Calculating another point on the path.
 Point Number  4 in FORWARD path direction.
 Using LQA Reaction Path Following.
   LQA: T_Est iteration completed in    3 iterations.
 IRC-IRC-IRC-IRC-IRC-IRC-IRC-IRC-IRC-IRC-IRC-IRC-IRC-IRC-IRC-IRC-IRC-IRC
 Leave Link  123 at Wed Mar 15 20:07:26 2017, MaxMem=   134217728 cpu:         0.0
 (Enter /n/sw/g09_D.01/g09/l202.exe)
                          Input orientation:                          
 ---------------------------------------------------------------------
 Center     Atomic      Atomic             Coordinates (Angstroms)
 Number     Number       Type             X           Y           Z
 ---------------------------------------------------------------------
      1          6           0       -0.020393    0.000002    0.000002
      2          1           0        0.002102   -0.752253   -0.798560
      3          1           0        0.002102   -0.315446    1.050755
      4          1           0        0.002102    1.067704   -0.252188
      5         17           0        2.157557    0.000000   -0.000001
      6         17           0       -2.150740    0.000000    0.000000
 ---------------------------------------------------------------------
                    Distance matrix (angstroms):
                    1          2          3          4          5
     1  C    0.000000
     2  H    1.097312   0.000000
     3  H    1.097312   1.900201   0.000000
     4  H    1.097312   1.900201   1.900201   0.000000
     5  Cl   2.177950   2.418588   2.418591   2.418590   0.000000
     6  Cl   2.130347   2.416260   2.416262   2.416262   4.308297
                    6
     6  Cl   0.000000
 Symmetry turned off by external request.
 This structure is nearly, but not quite of a higher symmetry.
 Consider Symm=Loose if the higher symmetry is desired.
 Stoichiometry    CH3Cl2(1-)
 Framework group  C1[X(CH3Cl2)]
 Deg. of freedom    12
 Full point group                 C1      NOp   1
 Rotational constants (GHZ):    138.8777960      1.5485265      1.5485265
 Leave Link  202 at Wed Mar 15 20:07:26 2017, MaxMem=   134217728 cpu:         0.0
 (Enter /n/sw/g09_D.01/g09/l301.exe)
 Standard basis: VSTO-6G (5D, 7F)
 Ernie: Thresh=  0.10000D-02 Tol=  0.10000D-05 Strict=F.
  NNHCO=     0 NNPyr=     0 NCTC=     0               EPep=         0.000000000
    EC=        31.364315070  ECS=         0.473090585   EG=         0.093137259
   EHC=         0.000000000  EAt=       -33.052414446  AtH=         0.613817032
 EPDDG=         0.000000000  ECC=        31.930542914 EAtT=        33.666231478
    15 basis functions,    90 primitive gaussians,    15 cartesian basis functions
    11 alpha electrons       11 beta electrons
       nuclear repulsion energy        65.5967743923 Hartrees.
 IExCor=    0 DFT=F Ex=HF Corr=None ExCW=0 ScaHFX=  1.000000
 ScaDFX=  1.000000  1.000000  1.000000  1.000000 ScalE2=  1.000000  1.000000
 IRadAn=      0 IRanWt=     -1 IRanGd=            0 ICorTp=0 IEmpDi=  4
 Integral buffers will be    131072 words long.
 Regular integral format.
 Two-electron integral symmetry is turned off.
 Leave Link  301 at Wed Mar 15 20:07:26 2017, MaxMem=   134217728 cpu:         0.1
 (Enter /n/sw/g09_D.01/g09/l302.exe)
 Do NDO integrals.
 NPDir=0 NMtPBC=     1 NCelOv=     1 NCel=       1 NClECP=     1 NCelD=      1
         NCelK=      1 NCelE2=     1 NClLst=     1 CellRange=     0.0.
 One-electron integrals computed using PRISM.
 NBasis=    15 RedAO= F EigKep=  0.00D+00  NBF=    15
 NBsUse=    15 1.00D-04 EigRej=  0.00D+00 NBFU=    15
 Leave Link  302 at Wed Mar 15 20:07:26 2017, MaxMem=   134217728 cpu:         0.1
 (Enter /n/sw/g09_D.01/g09/l303.exe)
[...]
 Symmetry not used in FoFCou.

 Cycle   1  Pass 1  IDiag  1:
 E=-0.103885185015813    
 DIIS: error= 4.70D-05 at cycle   1 NSaved=   1.
 NSaved= 1 IEnMin= 1 EnMin=-0.103885185015813     IErMin= 1 ErrMin= 4.70D-05
 ErrMax= 4.70D-05  0.00D+00 EMaxC= 1.00D-01 BMatC= 4.08D-08 BMatP= 4.08D-08
 IDIUse=1 WtCom= 1.00D+00 WtEn= 0.00D+00
 Coeff-Com:  0.100D+01
 Coeff:      0.100D+01
 RMSDP=4.55D-05 MaxDP=3.21D-04              OVMax= 0.00D+00

 Cycle   2  Pass 1  IDiag  3:
 E=-0.103885434970167     Delta-E=       -0.000000249954 Rises=F Damp=F
 DIIS: error= 2.11D-05 at cycle   2 NSaved=   2.
 NSaved= 2 IEnMin= 2 EnMin=-0.103885434970167     IErMin= 2 ErrMin= 2.11D-05
 ErrMax= 2.11D-05  0.00D+00 EMaxC= 1.00D-01 BMatC= 5.63D-09 BMatP= 4.08D-08
 IDIUse=1 WtCom= 1.00D+00 WtEn= 0.00D+00
 Coeff-Com: -0.490D+00 0.149D+01
 Coeff:     -0.490D+00 0.149D+01
 Gap=     0.327 Goal=   None    Shift=    0.000
 RMSDP=2.78D-05 MaxDP=2.06D-04 DE=-2.50D-07 OVMax= 2.75D-04

 Cycle   3  Pass 1  IDiag  3:
 E=-0.103885483474187     Delta-E=       -0.000000048504 Rises=F Damp=F
 DIIS: error= 3.71D-06 at cycle   3 NSaved=   3.
 NSaved= 3 IEnMin= 3 EnMin=-0.103885483474187     IErMin= 3 ErrMin= 3.71D-06
 ErrMax= 3.71D-06  0.00D+00 EMaxC= 1.00D-01 BMatC= 1.88D-10 BMatP= 5.63D-09
 IDIUse=1 WtCom= 1.00D+00 WtEn= 0.00D+00
 Coeff-Com:  0.188D+00-0.668D+00 0.148D+01
 Coeff:      0.188D+00-0.668D+00 0.148D+01
 Gap=     0.327 Goal=   None    Shift=    0.000
 RMSDP=5.25D-06 MaxDP=3.93D-05 DE=-4.85D-08 OVMax= 4.91D-05

 Cycle   4  Pass 1  IDiag  3:
 E=-0.103885484972096     Delta-E=       -0.000000001498 Rises=F Damp=F
 DIIS: error= 5.39D-07 at cycle   4 NSaved=   4.
 NSaved= 4 IEnMin= 4 EnMin=-0.103885484972096     IErMin= 4 ErrMin= 5.39D-07
 ErrMax= 5.39D-07  0.00D+00 EMaxC= 1.00D-01 BMatC= 5.51D-12 BMatP= 1.88D-10
 IDIUse=1 WtCom= 1.00D+00 WtEn= 0.00D+00
 Coeff-Com: -0.106D+00 0.380D+00-0.887D+00 0.161D+01
 Coeff:     -0.106D+00 0.380D+00-0.887D+00 0.161D+01
 Gap=     0.327 Goal=   None    Shift=    0.000
 RMSDP=6.33D-07 MaxDP=3.54D-06 DE=-1.50D-09 OVMax= 3.58D-06

 Cycle   5  Pass 1  IDiag  3:
 E=-0.103885485006188     Delta-E=       -0.000000000034 Rises=F Damp=F
 DIIS: error= 7.76D-08 at cycle   5 NSaved=   5.
 NSaved= 5 IEnMin= 5 EnMin=-0.103885485006188     IErMin= 5 ErrMin= 7.76D-08
 ErrMax= 7.76D-08  0.00D+00 EMaxC= 1.00D-01 BMatC= 1.44D-13 BMatP= 5.51D-12
 IDIUse=1 WtCom= 1.00D+00 WtEn= 0.00D+00
 Coeff-Com:  0.353D-01-0.127D+00 0.302D+00-0.654D+00 0.144D+01
 Coeff:      0.353D-01-0.127D+00 0.302D+00-0.654D+00 0.144D+01
 Gap=     0.327 Goal=   None    Shift=    0.000
 RMSDP=9.32D-08 MaxDP=5.59D-07 DE=-3.41D-11 OVMax= 4.11D-07

 Cycle   6  Pass 1  IDiag  3:
 E=-0.103885485006913     Delta-E=       -0.000000000001 Rises=F Damp=F
 DIIS: error= 5.99D-09 at cycle   6 NSaved=   6.
 NSaved= 6 IEnMin= 6 EnMin=-0.103885485006913     IErMin= 6 ErrMin= 5.99D-09
 ErrMax= 5.99D-09  0.00D+00 EMaxC= 1.00D-01 BMatC= 1.23D-15 BMatP= 1.44D-13
 IDIUse=1 WtCom= 1.00D+00 WtEn= 0.00D+00
 Coeff-Com: -0.148D-01 0.533D-01-0.127D+00 0.276D+00-0.643D+00 0.145D+01
 Coeff:     -0.148D-01 0.533D-01-0.127D+00 0.276D+00-0.643D+00 0.145D+01
 Gap=     0.327 Goal=   None    Shift=    0.000
 RMSDP=7.67D-09 MaxDP=2.87D-08 DE=-7.25D-13 OVMax= 4.17D-08

 Cycle   7  Pass 2  IDiag  1:
 SCF Done:  E(RAM1) = -0.103885485007     A.U. after    7 cycles
            NFock=  6  Conv=0.77D-08     -V/T= 0.9919
 KE=-1.280530939719D+01 PE=-1.061520091145D+02 EE= 5.429024746774D+01
 Leave Link  502 at Wed Mar 15 20:10:23 2017, MaxMem=   134217728 cpu:         0.1
 (Enter /n/sw/g09_D.01/g09/l801.exe)
 Range of M.O.s used for correlation:     1    15
 NBasis=    15 NAE=    11 NBE=    11 NFC=     0 NFV=     0
 NROrb=     15 NOA=    11 NOB=    11 NVA=     4 NVB=     4
 Leave Link  801 at Wed Mar 15 20:10:23 2017, MaxMem=   134217728 cpu:         0.0
 (Enter /n/sw/g09_D.01/g09/l1101.exe)
 Leave Link 1101 at Wed Mar 15 20:10:23 2017, MaxMem=   134217728 cpu:         0.0
 (Enter /n/sw/g09_D.01/g09/l1102.exe)
 Symmetrizing basis deriv contribution to polar:
 IMax=3 JMax=2 DiffMx= 0.00D+00
 Leave Link 1102 at Wed Mar 15 20:10:23 2017, MaxMem=   134217728 cpu:         0.0
 (Enter /n/sw/g09_D.01/g09/l1110.exe)
 Leave Link 1110 at Wed Mar 15 20:10:23 2017, MaxMem=   134217728 cpu:         0.0
 (Enter /n/sw/g09_D.01/g09/l1002.exe)
 Minotr:  Closed shell wavefunction.
 Leave Link 1002 at Wed Mar 15 20:10:23 2017, MaxMem=   134217728 cpu:         0.0
 (Enter /n/sw/g09_D.01/g09/l701.exe)
 Compute integral first derivatives.
 ... and contract with generalized density number  0.
 Leave Link  701 at Wed Mar 15 20:10:24 2017, MaxMem=   134217728 cpu:         0.1
 (Enter /n/sw/g09_D.01/g09/l702.exe)
 L702 exits ... SP integral derivatives will be done elsewhere.
 Leave Link  702 at Wed Mar 15 20:10:24 2017, MaxMem=   134217728 cpu:         0.1
 (Enter /n/sw/g09_D.01/g09/l703.exe)
 Compute integral first derivatives, UseDBF=F ICtDFT=           0.
 Integral derivatives from FoFJK, PRISM(SPDF).
 Calling FoFJK, ICntrl=      2147 FMM=F ISym2X=0 I1Cent= 0 IOpClX= 0 NMat=1 NMatS=1 NMatT=0.
 FoFJK:  IHMeth= 8 ICntrl=    2147 DoSepK=F KAlg= 0 I1Cent=   0 FoldK=F
 IRaf=         0 NMat=   1 IRICut=       1 DoRegI=T DoRafI=F ISym2E= 0.
 FoFCou: FMM=F IPFlag=           0 FMFlag=      100000 FMFlg1=         800
         NFxFlg=           0 DoJE=F BraDBF=F KetDBF=F FulRan=T
         wScrn=  0.000000 ICntrl=    2147 IOpCl=  0 I1Cent=           0 NGrid=           0
         NMat0=    1 NMatS0=      1 NMatT0=    0 NMatD0=    1 NMtDS0=    0 NMtDT0=    0
 Symmetry not used in FoFCou.
 Leave Link  703 at Wed Mar 15 20:10:24 2017, MaxMem=   134217728 cpu:         0.1
 (Enter /n/sw/g09_D.01/g09/l716.exe)
 Dipole        =-3.27499927D+00 5.54252654D-07 5.91936446D-07
 Polarizability= 0.00000000D+00 0.00000000D+00 0.00000000D+00
                 0.00000000D+00 0.00000000D+00 0.00000000D+00
 -------------------------------------------------------------------
 Center     Atomic                   Forces (Hartrees/Bohr)
 Number     Number              X              Y              Z
 -------------------------------------------------------------------
      1        6          -0.000155960   -0.000000001   -0.000000002
      2        1          -0.000011590    0.000000256    0.000000271
      3        1          -0.000011590    0.000000107   -0.000000357
      4        1          -0.000011590   -0.000000363    0.000000086
      5       17           0.000616436    0.000000001    0.000000001
      6       17          -0.000425707    0.000000001    0.000000001
 -------------------------------------------------------------------
 Cartesian Forces:  Max     0.000616436 RMS     0.000180423
 Z-matrix is all fixed cartesians, so copy forces.
 Leave Link  716 at Wed Mar 15 20:10:24 2017, MaxMem=   134217728 cpu:         0.0
 (Enter /n/sw/g09_D.01/g09/l123.exe)
 IRC-IRC-IRC-IRC-IRC-IRC-IRC-IRC-IRC-IRC-IRC-IRC-IRC-IRC-IRC-IRC-IRC-IRC
 Pt133 Step number   1 out of a maximum of  20
 Using modified Bulirsch-Stoer corrector integration.
   Using distance weighted interpolants to fit PES.
 PreDWI: IReCr0= 2 IReCr1= 1 IReCr2= 1 IReCr3= 1
 Modified Bulirsch-Stoer Extrapolation Cycles:
    EPS =    0.000010000000000
    Cycle     1 NS=    48
    Cycle     2 NS=    64 Truncation Error =  0.000000008
 BS completed in    2 cycles and     112 integration steps.
 Maximum DWI energy   std dev =  0.000000001 at pt    47
 Maximum DWI gradient std dev =  0.001672756 at pt    39
 SUMMARY OF CORRECTOR INTEGRATION:
   Predictor End Point Energy =    -0.103885
   Old End Point Energy       =    -0.103885
   Corrected End Point Energy =    -0.103885
   Predictor End-Start Dist.  =     0.035838
   Old End-Start Dist.        =     0.035838
   New End-Start Dist.        =     0.035838
   New End-Old End Dist.      =     0.000013
 CORRECTOR INTEGRATION CONVERGENCE:
   Recorrection delta-x convergence threshold:    0.010000
   Delta-x Convergence Met
 Point Number: 133          Path Number:   1
                    CURRENT STRUCTURE
                Cartesian Coordinates (Ang):                
 ---------------------------------------------------------------------
 Center     Atomic                     Coordinates (Angstroms)
 Number     Number                        X           Y           Z
 ---------------------------------------------------------------------
      1          6                   -0.449356    0.000000    0.000000
      2          1                   -0.115560   -0.725335   -0.769985
      3          1                   -0.115561   -0.304159    1.013153
      4          1                   -0.115561    1.029496   -0.243165
      5         17                    2.398845    0.000000    0.000000
      6         17                   -2.234653    0.000000    0.000000
 ---------------------------------------------------------------------
   CHANGE IN THE REACTION COORDINATE =    0.03584
   NET REACTION COORDINATE UP TO THIS POINT =    4.76591
  # OF POINTS ALONG THE PATH = 133
  # OF STEPS =   1

 PES minimum detected on this side of the pathway.
    Magnitude of the gradient =      0.0001359
 Calculation of FORWARD path complete.
 Reaction path calculation complete.
 
 Energies reported relative to the TS energy of          -0.089469
 --------------------------------------------------------------------------
    Summary of reaction path following
 --------------------------------------------------------------------------
                        Energy    RxCoord
   1                    0.00000   0.00000
   2                   -0.00001   0.03563
   3                   -0.00002   0.07145
   4                   -0.00005   0.10729
   5                   -0.00009   0.14312
   6                   -0.00013   0.17896
   7                   -0.00019   0.21479
   8                   -0.00026   0.25063
   9                   -0.00034   0.28646
  10                   -0.00042   0.32230
  11                   -0.00052   0.35813
  12                   -0.00063   0.39397
  13                   -0.00074   0.42980
  14                   -0.00087   0.46564
  15                   -0.00101   0.50147
  16                   -0.00115   0.53731
  17                   -0.00130   0.57315
  18                   -0.00146   0.60898
  19                   -0.00163   0.64482
  20                   -0.00181   0.68065
  21                   -0.00199   0.71649
  22                   -0.00218   0.75232
  23                   -0.00238   0.78816
  24                   -0.00258   0.82400
  25                   -0.00279   0.85983
  26                   -0.00300   0.89567
  27                   -0.00322   0.93150
  28                   -0.00345   0.96734
  29                   -0.00368   1.00318
  30                   -0.00391   1.03901
  31                   -0.00415   1.07485
  32                   -0.00438   1.11068
  33                   -0.00463   1.14652
  34                   -0.00487   1.18236
  35                   -0.00511   1.21819
  36                   -0.00536   1.25403
  37                   -0.00561   1.28986
  38                   -0.00585   1.32570
  39                   -0.00610   1.36154
  40                   -0.00635   1.39737
  41                   -0.00659   1.43321
  42                   -0.00683   1.46904
  43                   -0.00707   1.50488
  44                   -0.00731   1.54072
  45                   -0.00754   1.57655
  46                   -0.00777   1.61239
  47                   -0.00800   1.64822
  48                   -0.00822   1.68406
  49                   -0.00844   1.71989
  50                   -0.00865   1.75573
  51                   -0.00885   1.79157
  52                   -0.00905   1.82740
  53                   -0.00924   1.86323
  54                   -0.00942   1.89907
  55                   -0.00960   1.93490
  56                   -0.00977   1.97074
  57                   -0.00993   2.00657
  58                   -0.01009   2.04240
  59                   -0.01024   2.07823
  60                   -0.01038   2.11406
  61                   -0.01052   2.14989
  62                   -0.01065   2.18572
  63                   -0.01077   2.22155
  64                   -0.01089   2.25738
  65                   -0.01101   2.29321
  66                   -0.01112   2.32904
  67                   -0.01123   2.36487
  68                   -0.01133   2.40070
  69                   -0.01143   2.43654
  70                   -0.01153   2.47237
  71                   -0.01163   2.50820
  72                   -0.01172   2.54404
  73                   -0.01181   2.57987
  74                   -0.01190   2.61571
  75                   -0.01199   2.65155
  76                   -0.01208   2.68738
  77                   -0.01216   2.72322
  78                   -0.01225   2.75905
  79                   -0.01233   2.79489
  80                   -0.01240   2.83073
  81                   -0.01248   2.86656
  82                   -0.01256   2.90240
  83                   -0.01263   2.93824
  84                   -0.01270   2.97407
  85                   -0.01277   3.00991
  86                   -0.01284   3.04575
  87                   -0.01290   3.08158
  88                   -0.01297   3.11742
  89                   -0.01303   3.15325
  90                   -0.01309   3.18909
  91                   -0.01315   3.22493
  92                   -0.01321   3.26076
  93                   -0.01327   3.29660
  94                   -0.01332   3.33244
  95                   -0.01338   3.36827
  96                   -0.01343   3.40411
  97                   -0.01348   3.43995
  98                   -0.01353   3.47578
  99                   -0.01357   3.51162
 100                   -0.01362   3.54746
 101                   -0.01366   3.58329
 102                   -0.01371   3.61913
 103                   -0.01375   3.65497
 104                   -0.01379   3.69080
 105                   -0.01383   3.72664
 106                   -0.01386   3.76248
 107                   -0.01390   3.79831
 108                   -0.01394   3.83415
 109                   -0.01397   3.86999
 110                   -0.01400   3.90582
 111                   -0.01403   3.94166
 112                   -0.01406   3.97750
 113                   -0.01409   4.01333
 114                   -0.01412   4.04917
 115                   -0.01414   4.08501
 116                   -0.01417   4.12084
 117                   -0.01419   4.15668
 118                   -0.01421   4.19252
 119                   -0.01423   4.22835
 120                   -0.01425   4.26419
 121                   -0.01427   4.30003
 122                   -0.01429   4.33586
 123                   -0.01430   4.37170
 124                   -0.01432   4.40754
 125                   -0.01433   4.44337
 126                   -0.01435   4.47921
 127                   -0.01436   4.51505
 128                   -0.01437   4.55088
 129                   -0.01438   4.58672
 130                   -0.01439   4.62256
 131                   -0.01440   4.65840
 132                   -0.01440   4.69423
 133                   -0.01441   4.73007
 134                   -0.01442   4.76591
 --------------------------------------------------------------------------
 
 Total number of points:                  133
 Total number of gradient calculations:   134
 Total number of Hessian calculations:     14
 IRC-IRC-IRC-IRC-IRC-IRC-IRC-IRC-IRC-IRC-IRC-IRC-IRC-IRC-IRC-IRC-IRC-IRC
 Leave Link  123 at Wed Mar 15 20:10:24 2017, MaxMem=   134217728 cpu:         0.0
 (Enter /n/sw/g09_D.01/g09/l202.exe)
                          Input orientation:                          
 ---------------------------------------------------------------------
 Center     Atomic      Atomic             Coordinates (Angstroms)
 Number     Number       Type             X           Y           Z
 ---------------------------------------------------------------------
      1          6           0       -0.449356    0.000000    0.000000
      2          1           0       -0.115556   -0.725334   -0.769985
      3          1           0       -0.115557   -0.304159    1.013151
      4          1           0       -0.115557    1.029495   -0.243165
      5         17           0        2.398845    0.000000    0.000000
      6         17           0       -2.234654    0.000000    0.000000
 ---------------------------------------------------------------------
                    Distance matrix (angstroms):
                    1          2          3          4          5
     1  C    0.000000
     2  H    1.109238   0.000000
     3  H    1.109238   1.832202   0.000000
     4  H    1.109238   1.832202   1.832202   0.000000
     5  Cl   2.848202   2.727857   2.727858   2.727858   0.000000
     6  Cl   1.785297   2.368451   2.368451   2.368451   4.633499
                    6
     6  Cl   0.000000
 Symmetry turned off by external request.
 This structure is nearly, but not quite of a higher symmetry.
 Consider Symm=Loose if the higher symmetry is desired.
 Stoichiometry    CH3Cl2(1-)
 Framework group  C1[X(CH3Cl2)]
 Deg. of freedom    12
 Full point group                 C1      NOp   1
 Rotational constants (GHZ):    149.3776058      1.3299272      1.3299272
 Leave Link  202 at Wed Mar 15 20:10:24 2017, MaxMem=   134217728 cpu:         0.0
 (Enter /n/sw/g09_D.01/g09/l601.exe)
 Copying SCF densities to generalized density rwf, IOpCl= 0 IROHF=0.

 **********************************************************************

            Population analysis using the SCF density.

 **********************************************************************

 Alpha  occ. eigenvalues --   -1.21693  -0.94338  -0.89635  -0.39734  -0.39734
 Alpha  occ. eigenvalues --   -0.38944  -0.27985  -0.27985  -0.13025  -0.13025
 Alpha  occ. eigenvalues --   -0.12744
 Alpha virt. eigenvalues --    0.20006   0.30913   0.30913   0.32703
          Condensed to atoms (all electrons):
               1          2          3          4          5          6
     1  C    4.099757   0.000000   0.000000   0.000000   0.000000   0.000000
     2  H    0.000000   0.883292   0.000000   0.000000   0.000000   0.000000
     3  H    0.000000   0.000000   0.883292   0.000000   0.000000   0.000000
     4  H    0.000000   0.000000   0.000000   0.883292   0.000000   0.000000
     5  Cl   0.000000   0.000000   0.000000   0.000000   7.977957   0.000000
     6  Cl   0.000000   0.000000   0.000000   0.000000   0.000000   7.272411
 Mulliken charges:
               1
     1  C   -0.099757
     2  H    0.116708
     3  H    0.116708
     4  H    0.116708
     5  Cl  -0.977957
     6  Cl  -0.272411
 Sum of Mulliken charges =  -1.00000
 Mulliken charges with hydrogens summed into heavy atoms:
               1
     1  C    0.250368
     5  Cl  -0.977957
     6  Cl  -0.272411
 APT charges:
               1
     1  C   -0.099757
     2  H    0.116708
     3  H    0.116708
     4  H    0.116708
     5  Cl  -0.977957
     6  Cl  -0.272411
 Sum of APT charges =  -1.00000
 APT charges with hydrogens summed into heavy atoms:
               1
     1  C    0.250368
     5  Cl  -0.977957
     6  Cl  -0.272411
 Charge=             -1.0000 electrons
 Dipole moment (field-independent basis, Debye):
    X=             -8.3242    Y=              0.0000    Z=              0.0000  Tot=              8.3242
 N-N= 6.456318555893D+01 E-N=-1.061520091762D+02  KE=-1.280530939719D+01
  Exact polarizability:   0.000   0.000   0.000   0.000   0.000   0.000
 Approx polarizability:  22.349   0.000   4.681   0.000   0.000   4.681
 Leave Link  601 at Wed Mar 15 20:10:24 2017, MaxMem=   134217728 cpu:         0.1
 (Enter /n/sw/g09_D.01/g09/l9999.exe)

 This type of calculation cannot be archived.


 OLD AGE AND TREACHERY WILL ALWAYS PREVAIL OVER YOUTH AND SKILL.
 Job cpu time:       0 days  0 hours  2 minutes 45.8 seconds.
 File lengths (MBytes):  RWF=      5 Int=      0 D2E=      0 Chk=      2 Scr=      1
 Normal termination of Gaussian 09 at Wed Mar 15 20:10:24 2017.
